 Entering Gaussian System, Link 0=g16
 Input=test1.gjf
 Output=test1.log
 Initial command:
 /usr/local/bin/g16/l1.exe "/usr/local/bin/g16/scratch/Gau-1501.inp" -scrdir="/usr/local/bin/g16/scratch/"
 Entering Link 1 = /usr/local/bin/g16/l1.exe PID=      1503.
  
 Copyright (c) 1988,1990,1992,1993,1995,1998,2003,2009,2016,
            Gaussian, Inc.  All Rights Reserved.
  
 This is part of the Gaussian(R) 16 program.  It is based on
 the Gaussian(R) 09 system (copyright 2009, Gaussian, Inc.),
 the Gaussian(R) 03 system (copyright 2003, Gaussian, Inc.),
 the Gaussian(R) 98 system (copyright 1998, Gaussian, Inc.),
 the Gaussian(R) 94 system (copyright 1995, Gaussian, Inc.),
 the Gaussian 92(TM) system (copyright 1992, Gaussian, Inc.),
 the Gaussian 90(TM) system (copyright 1990, Gaussian, Inc.),
 the Gaussian 88(TM) system (copyright 1988, Gaussian, Inc.),
 the Gaussian 86(TM) system (copyright 1986, Carnegie Mellon
 University), and the Gaussian 82(TM) system (copyright 1983,
 Carnegie Mellon University). Gaussian is a federally registered
 trademark of Gaussian, Inc.
  
 This software contains proprietary and confidential information,
 including trade secrets, belonging to Gaussian, Inc.
  
 This software is provided under written license and may be
 used, copied, transmitted, or stored only in accord with that
 written license.
  
 The following legend is applicable only to US Government
 contracts under FAR:
  
                    RESTRICTED RIGHTS LEGEND
  
 Use, reproduction and disclosure by the US Government is
 subject to restrictions as set forth in subparagraphs (a)
 and (c) of the Commercial Computer Software - Restricted
 Rights clause in FAR 52.227-19.
  
 Gaussian, Inc.
 340 Quinnipiac St., Bldg. 40, Wallingford CT 06492
  
  
 ---------------------------------------------------------------
 Warning -- This program may not be used in any manner that
 competes with the business of Gaussian, Inc. or will provide
 assistance to any competitor of Gaussian, Inc.  The licensee
 of this program is prohibited from giving any competitor of
 Gaussian, Inc. access to this program.  By using this program,
 the user acknowledges that Gaussian, Inc. is engaged in the
 business of creating and licensing software in the field of
 computational chemistry and represents and warrants to the
 licensee that it is not a competitor of Gaussian, Inc. and that
 it will not use this program in any manner prohibited above.
 ---------------------------------------------------------------
  

 Cite this work as:
 Gaussian 16, Revision A.03,
 M. J. Frisch, G. W. Trucks, H. B. Schlegel, G. E. Scuseria, 
 M. A. Robb, J. R. Cheeseman, G. Scalmani, V. Barone, 
 G. A. Petersson, H. Nakatsuji, X. Li, M. Caricato, A. V. Marenich, 
 J. Bloino, B. G. Janesko, R. Gomperts, B. Mennucci, H. P. Hratchian, 
 J. V. Ortiz, A. F. Izmaylov, J. L. Sonnenberg, D. Williams-Young, 
 F. Ding, F. Lipparini, F. Egidi, J. Goings, B. Peng, A. Petrone, 
 T. Henderson, D. Ranasinghe, V. G. Zakrzewski, J. Gao, N. Rega, 
 G. Zheng, W. Liang, M. Hada, M. Ehara, K. Toyota, R. Fukuda, 
 J. Hasegawa, M. Ishida, T. Nakajima, Y. Honda, O. Kitao, H. Nakai, 
 T. Vreven, K. Throssell, J. A. Montgomery, Jr., J. E. Peralta, 
 F. Ogliaro, M. J. Bearpark, J. J. Heyd, E. N. Brothers, K. N. Kudin, 
 V. N. Staroverov, T. A. Keith, R. Kobayashi, J. Normand, 
 K. Raghavachari, A. P. Rendell, J. C. Burant, S. S. Iyengar, 
 J. Tomasi, M. Cossi, J. M. Millam, M. Klene, C. Adamo, R. Cammi, 
 J. W. Ochterski, R. L. Martin, K. Morokuma, O. Farkas, 
 J. B. Foresman, and D. J. Fox, Gaussian, Inc., Wallingford CT, 2016.
 
 ******************************************
 Gaussian 16:  ES64L-G16RevA.03 25-Dec-2016
                 5-Dec-2025 
 ******************************************
 %nprocshared=1
 Will use up to    1 processors via shared memory.
 ----------------------------------------------------
 #p opt=(calcfc,ts,noeigen,nomicro) external='xtbint'
 ----------------------------------------------------
 1/5=1,10=4,11=1,18=20,26=1,38=1/1,3;
 2/9=110,12=2,17=6,18=5,40=1/2;
 3/11=9,25=1,30=1,41=9900000,43=2,71=2,140=1/1;
 4/20=17,22=2,24=3,113=1,114=1/2;
 6/7=2,8=2,9=2,10=2/1;
 7/25=1,44=-1/16;
 1/5=1,10=4,11=1,18=20,26=1/3(2);
 2/9=110/2;
 99//99;
 2/9=110/2;
 3/11=9,25=1,30=1,41=9900000,43=2,71=1/1;
 4/16=2,20=17,22=1,24=3,113=1,114=1/2;
 7/44=-1/16;
 1/5=1,11=1,18=20,26=1/3(-4);
 2/9=110/2;
 6/7=2,8=2,9=2,10=2/1;
 99//99;
 Leave Link    1 at Fri Dec  5 13:08:33 2025, MaxMem=           0 cpu:               0.0 elap:               0.0
 (Enter /usr/local/bin/g16/l101.exe)
 -----
 test1
 -----
 Symbolic Z-matrix:
 Charge =  0 Multiplicity = 1
 C                    -1.58358  -1.65355   0.0027 
 H                    -1.22692  -2.66236   0.0027 
 H                    -1.2269   -1.14916  -0.87095 
 H                    -2.65358  -1.65354   0.0027 
 C                    -1.07024  -0.9276    1.26011 
 H                    -0.00024  -0.92761   1.26011 
 H                    -1.42689   0.08121   1.26011 
 C                    -1.58358  -1.65356   2.51751 
 H                    -1.2269   -1.14916   3.39116 
 H                    -1.22692  -2.66237   2.51751 
 C                    -3.12358  -1.65353   2.51751 
 H                    -3.48025  -2.47619   1.93363 
 H                    -3.48023  -0.73654   2.09701 
 C                    -3.63691  -1.78928   3.96308 
 H                    -4.70442  -1.86194   3.95714 
 H                    -3.22197  -2.66963   4.40772 
 C                    -3.21102  -0.55342   4.77724 
 H                    -2.20765  -0.68399   5.12521 
 H                    -3.26314   0.31726   4.15748 
 C                    -4.15424  -0.38276   5.98256 
 H                    -3.81648   0.43294   6.58709 
 H                    -5.14568  -0.18172   5.63395 
 C                    -4.15667  -1.67544   6.81956 
 H                    -4.50417  -1.45952   7.80826 
 H                    -4.80411  -2.3947    6.36308 
 H                    -3.16339  -2.07026   6.86891 
 
 ITRead=  0  0  0  0  0  0  0  0  0  0  0  0  0  0  0  0  0  0  0  0
 ITRead=  0  0  0  0  0  0
 MicOpt= -1 -1 -1 -1 -1 -1 -1 -1 -1 -1 -1 -1 -1 -1 -1 -1 -1 -1 -1 -1
 MicOpt= -1 -1 -1 -1 -1 -1
 NAtoms=     26 NQM=       26 NQMF=       0 NMMI=      0 NMMIF=      0
                NMic=       0 NMicF=      0.
                    Isotopes and Nuclear Properties:
 (Nuclear quadrupole moments (NQMom) in fm**2, nuclear magnetic moments (NMagM)
  in nuclear magnetons)

  Atom         1           2           3           4           5           6           7           8           9          10
 IAtWgt=          12           1           1           1          12           1           1          12           1           1
 AtmWgt=  12.0000000   1.0078250   1.0078250   1.0078250  12.0000000   1.0078250   1.0078250  12.0000000   1.0078250   1.0078250
 NucSpn=           0           1           1           1           0           1           1           0           1           1
 AtZEff=  -0.0000000  -0.0000000  -0.0000000  -0.0000000  -0.0000000  -0.0000000  -0.0000000  -0.0000000  -0.0000000  -0.0000000
 NQMom=    0.0000000   0.0000000   0.0000000   0.0000000   0.0000000   0.0000000   0.0000000   0.0000000   0.0000000   0.0000000
 NMagM=    0.0000000   2.7928460   2.7928460   2.7928460   0.0000000   2.7928460   2.7928460   0.0000000   2.7928460   2.7928460
 AtZNuc=   6.0000000   1.0000000   1.0000000   1.0000000   6.0000000   1.0000000   1.0000000   6.0000000   1.0000000   1.0000000

  Atom        11          12          13          14          15          16          17          18          19          20
 IAtWgt=          12           1           1          12           1           1          12           1           1          12
 AtmWgt=  12.0000000   1.0078250   1.0078250  12.0000000   1.0078250   1.0078250  12.0000000   1.0078250   1.0078250  12.0000000
 NucSpn=           0           1           1           0           1           1           0           1           1           0
 AtZEff=  -0.0000000  -0.0000000  -0.0000000  -0.0000000  -0.0000000  -0.0000000  -0.0000000  -0.0000000  -0.0000000  -0.0000000
 NQMom=    0.0000000   0.0000000   0.0000000   0.0000000   0.0000000   0.0000000   0.0000000   0.0000000   0.0000000   0.0000000
 NMagM=    0.0000000   2.7928460   2.7928460   0.0000000   2.7928460   2.7928460   0.0000000   2.7928460   2.7928460   0.0000000
 AtZNuc=   6.0000000   1.0000000   1.0000000   6.0000000   1.0000000   1.0000000   6.0000000   1.0000000   1.0000000   6.0000000

  Atom        21          22          23          24          25          26
 IAtWgt=           1           1          12           1           1           1
 AtmWgt=   1.0078250   1.0078250  12.0000000   1.0078250   1.0078250   1.0078250
 NucSpn=           1           1           0           1           1           1
 AtZEff=  -0.0000000  -0.0000000  -0.0000000  -0.0000000  -0.0000000  -0.0000000
 NQMom=    0.0000000   0.0000000   0.0000000   0.0000000   0.0000000   0.0000000
 NMagM=    2.7928460   2.7928460   0.0000000   2.7928460   2.7928460   2.7928460
 AtZNuc=   1.0000000   1.0000000   6.0000000   1.0000000   1.0000000   1.0000000
 Leave Link  101 at Fri Dec  5 13:08:33 2025, MaxMem=   104857600 cpu:               0.2 elap:               0.2
 (Enter /usr/local/bin/g16/l103.exe)

 GradGradGradGradGradGradGradGradGradGradGradGradGradGradGradGradGradGrad
 Berny optimization.
 Initialization pass.
                           ----------------------------
                           !    Initial Parameters    !
                           ! (Angstroms and Degrees)  !
 --------------------------                            --------------------------
 ! Name  Definition              Value          Derivative Info.                !
 --------------------------------------------------------------------------------
 ! R1    R(1,2)                  1.07           calculate D2E/DX2 analytically  !
 ! R2    R(1,3)                  1.07           calculate D2E/DX2 analytically  !
 ! R3    R(1,4)                  1.07           calculate D2E/DX2 analytically  !
 ! R4    R(1,5)                  1.54           calculate D2E/DX2 analytically  !
 ! R5    R(5,6)                  1.07           calculate D2E/DX2 analytically  !
 ! R6    R(5,7)                  1.07           calculate D2E/DX2 analytically  !
 ! R7    R(5,8)                  1.54           calculate D2E/DX2 analytically  !
 ! R8    R(8,9)                  1.07           calculate D2E/DX2 analytically  !
 ! R9    R(8,10)                 1.07           calculate D2E/DX2 analytically  !
 ! R10   R(8,11)                 1.54           calculate D2E/DX2 analytically  !
 ! R11   R(11,12)                1.07           calculate D2E/DX2 analytically  !
 ! R12   R(11,13)                1.07           calculate D2E/DX2 analytically  !
 ! R13   R(11,14)                1.54           calculate D2E/DX2 analytically  !
 ! R14   R(14,15)                1.07           calculate D2E/DX2 analytically  !
 ! R15   R(14,16)                1.07           calculate D2E/DX2 analytically  !
 ! R16   R(14,17)                1.54           calculate D2E/DX2 analytically  !
 ! R17   R(17,18)                1.07           calculate D2E/DX2 analytically  !
 ! R18   R(17,19)                1.07           calculate D2E/DX2 analytically  !
 ! R19   R(17,20)                1.54           calculate D2E/DX2 analytically  !
 ! R20   R(20,21)                1.07           calculate D2E/DX2 analytically  !
 ! R21   R(20,22)                1.07           calculate D2E/DX2 analytically  !
 ! R22   R(20,23)                1.54           calculate D2E/DX2 analytically  !
 ! R23   R(23,24)                1.07           calculate D2E/DX2 analytically  !
 ! R24   R(23,25)                1.07           calculate D2E/DX2 analytically  !
 ! R25   R(23,26)                1.07           calculate D2E/DX2 analytically  !
 ! A1    A(2,1,3)              109.4712         calculate D2E/DX2 analytically  !
 ! A2    A(2,1,4)              109.4712         calculate D2E/DX2 analytically  !
 ! A3    A(2,1,5)              109.4712         calculate D2E/DX2 analytically  !
 ! A4    A(3,1,4)              109.4712         calculate D2E/DX2 analytically  !
 ! A5    A(3,1,5)              109.4713         calculate D2E/DX2 analytically  !
 ! A6    A(4,1,5)              109.4712         calculate D2E/DX2 analytically  !
 ! A7    A(1,5,6)              109.4712         calculate D2E/DX2 analytically  !
 ! A8    A(1,5,7)              109.4712         calculate D2E/DX2 analytically  !
 ! A9    A(1,5,8)              109.4712         calculate D2E/DX2 analytically  !
 ! A10   A(6,5,7)              109.4713         calculate D2E/DX2 analytically  !
 ! A11   A(6,5,8)              109.4712         calculate D2E/DX2 analytically  !
 ! A12   A(7,5,8)              109.4712         calculate D2E/DX2 analytically  !
 ! A13   A(5,8,9)              109.4712         calculate D2E/DX2 analytically  !
 ! A14   A(5,8,10)             109.4712         calculate D2E/DX2 analytically  !
 ! A15   A(5,8,11)             109.4712         calculate D2E/DX2 analytically  !
 ! A16   A(9,8,10)             109.4712         calculate D2E/DX2 analytically  !
 ! A17   A(9,8,11)             109.4713         calculate D2E/DX2 analytically  !
 ! A18   A(10,8,11)            109.4712         calculate D2E/DX2 analytically  !
 ! A19   A(8,11,12)            109.4712         calculate D2E/DX2 analytically  !
 ! A20   A(8,11,13)            109.4712         calculate D2E/DX2 analytically  !
 ! A21   A(8,11,14)            109.4712         calculate D2E/DX2 analytically  !
 ! A22   A(12,11,13)           109.4712         calculate D2E/DX2 analytically  !
 ! A23   A(12,11,14)           109.4713         calculate D2E/DX2 analytically  !
 ! A24   A(13,11,14)           109.4712         calculate D2E/DX2 analytically  !
 ! A25   A(11,14,15)           109.4712         calculate D2E/DX2 analytically  !
 ! A26   A(11,14,16)           109.4712         calculate D2E/DX2 analytically  !
 ! A27   A(11,14,17)           109.4712         calculate D2E/DX2 analytically  !
 ! A28   A(15,14,16)           109.4712         calculate D2E/DX2 analytically  !
 ! A29   A(15,14,17)           109.4713         calculate D2E/DX2 analytically  !
 ! A30   A(16,14,17)           109.4712         calculate D2E/DX2 analytically  !
 ! A31   A(14,17,18)           109.4712         calculate D2E/DX2 analytically  !
 ! A32   A(14,17,19)           109.4712         calculate D2E/DX2 analytically  !
 ! A33   A(14,17,20)           109.4712         calculate D2E/DX2 analytically  !
 ! A34   A(18,17,19)           109.4712         calculate D2E/DX2 analytically  !
 ! A35   A(18,17,20)           109.4713         calculate D2E/DX2 analytically  !
 ! A36   A(19,17,20)           109.4712         calculate D2E/DX2 analytically  !
 ! A37   A(17,20,21)           109.4712         calculate D2E/DX2 analytically  !
 ! A38   A(17,20,22)           109.4712         calculate D2E/DX2 analytically  !
 ! A39   A(17,20,23)           109.4712         calculate D2E/DX2 analytically  !
 ! A40   A(21,20,22)           109.4712         calculate D2E/DX2 analytically  !
 ! A41   A(21,20,23)           109.4713         calculate D2E/DX2 analytically  !
 ! A42   A(22,20,23)           109.4712         calculate D2E/DX2 analytically  !
 ! A43   A(20,23,24)           109.4712         calculate D2E/DX2 analytically  !
 ! A44   A(20,23,25)           109.4712         calculate D2E/DX2 analytically  !
 ! A45   A(20,23,26)           109.4712         calculate D2E/DX2 analytically  !
 ! A46   A(24,23,25)           109.4713         calculate D2E/DX2 analytically  !
 ! A47   A(24,23,26)           109.4712         calculate D2E/DX2 analytically  !
 ! A48   A(25,23,26)           109.4712         calculate D2E/DX2 analytically  !
 ! D1    D(2,1,5,6)             60.0            calculate D2E/DX2 analytically  !
 ! D2    D(2,1,5,7)           -180.0            calculate D2E/DX2 analytically  !
 ! D3    D(2,1,5,8)            -60.0            calculate D2E/DX2 analytically  !
 ! D4    D(3,1,5,6)            -60.0            calculate D2E/DX2 analytically  !
 ! D5    D(3,1,5,7)             60.0            calculate D2E/DX2 analytically  !
 ! D6    D(3,1,5,8)           -180.0            calculate D2E/DX2 analytically  !
 ! D7    D(4,1,5,6)           -180.0            calculate D2E/DX2 analytically  !
 ! D8    D(4,1,5,7)            -60.0            calculate D2E/DX2 analytically  !
 ! D9    D(4,1,5,8)             60.0            calculate D2E/DX2 analytically  !
 ! D10   D(1,5,8,9)            179.9999         calculate D2E/DX2 analytically  !
 ! D11   D(1,5,8,10)            59.9999         calculate D2E/DX2 analytically  !
 ! D12   D(1,5,8,11)           -60.0001         calculate D2E/DX2 analytically  !
 ! D13   D(6,5,8,9)             59.9999         calculate D2E/DX2 analytically  !
 ! D14   D(6,5,8,10)           -60.0001         calculate D2E/DX2 analytically  !
 ! D15   D(6,5,8,11)           179.9999         calculate D2E/DX2 analytically  !
 ! D16   D(7,5,8,9)            -60.0001         calculate D2E/DX2 analytically  !
 ! D17   D(7,5,8,10)           179.9999         calculate D2E/DX2 analytically  !
 ! D18   D(7,5,8,11)            59.9999         calculate D2E/DX2 analytically  !
 ! D19   D(5,8,11,12)           84.635          calculate D2E/DX2 analytically  !
 ! D20   D(5,8,11,13)          -35.365          calculate D2E/DX2 analytically  !
 ! D21   D(5,8,11,14)         -155.365          calculate D2E/DX2 analytically  !
 ! D22   D(9,8,11,12)         -155.365          calculate D2E/DX2 analytically  !
 ! D23   D(9,8,11,13)           84.635          calculate D2E/DX2 analytically  !
 ! D24   D(9,8,11,14)          -35.365          calculate D2E/DX2 analytically  !
 ! D25   D(10,8,11,12)         -35.365          calculate D2E/DX2 analytically  !
 ! D26   D(10,8,11,13)        -155.365          calculate D2E/DX2 analytically  !
 ! D27   D(10,8,11,14)          84.635          calculate D2E/DX2 analytically  !
 ! D28   D(8,11,14,15)        -175.8557         calculate D2E/DX2 analytically  !
 ! D29   D(8,11,14,16)         -55.8557         calculate D2E/DX2 analytically  !
 ! D30   D(8,11,14,17)          64.1443         calculate D2E/DX2 analytically  !
 ! D31   D(12,11,14,15)        -55.8557         calculate D2E/DX2 analytically  !
 ! D32   D(12,11,14,16)         64.1443         calculate D2E/DX2 analytically  !
 ! D33   D(12,11,14,17)       -175.8557         calculate D2E/DX2 analytically  !
 ! D34   D(13,11,14,15)         64.1443         calculate D2E/DX2 analytically  !
 ! D35   D(13,11,14,16)       -175.8557         calculate D2E/DX2 analytically  !
 ! D36   D(13,11,14,17)        -55.8557         calculate D2E/DX2 analytically  !
 ! D37   D(11,14,17,18)        -83.043          calculate D2E/DX2 analytically  !
 ! D38   D(11,14,17,19)         36.957          calculate D2E/DX2 analytically  !
 ! D39   D(11,14,17,20)        156.9569         calculate D2E/DX2 analytically  !
 ! D40   D(15,14,17,18)        156.957          calculate D2E/DX2 analytically  !
 ! D41   D(15,14,17,19)        -83.043          calculate D2E/DX2 analytically  !
 ! D42   D(15,14,17,20)         36.957          calculate D2E/DX2 analytically  !
 ! D43   D(16,14,17,18)         36.957          calculate D2E/DX2 analytically  !
 ! D44   D(16,14,17,19)        156.957          calculate D2E/DX2 analytically  !
 ! D45   D(16,14,17,20)        -83.0431         calculate D2E/DX2 analytically  !
 ! D46   D(14,17,20,21)        175.9397         calculate D2E/DX2 analytically  !
 ! D47   D(14,17,20,22)        -64.0603         calculate D2E/DX2 analytically  !
 ! D48   D(14,17,20,23)         55.9397         calculate D2E/DX2 analytically  !
 ! D49   D(18,17,20,21)         55.9397         calculate D2E/DX2 analytically  !
 ! D50   D(18,17,20,22)        175.9397         calculate D2E/DX2 analytically  !
 ! D51   D(18,17,20,23)        -64.0603         calculate D2E/DX2 analytically  !
 ! D52   D(19,17,20,21)        -64.0603         calculate D2E/DX2 analytically  !
 ! D53   D(19,17,20,22)         55.9397         calculate D2E/DX2 analytically  !
 ! D54   D(19,17,20,23)        175.9397         calculate D2E/DX2 analytically  !
 ! D55   D(17,20,23,24)        159.6436         calculate D2E/DX2 analytically  !
 ! D56   D(17,20,23,25)        -80.3564         calculate D2E/DX2 analytically  !
 ! D57   D(17,20,23,26)         39.6436         calculate D2E/DX2 analytically  !
 ! D58   D(21,20,23,24)         39.6436         calculate D2E/DX2 analytically  !
 ! D59   D(21,20,23,25)        159.6437         calculate D2E/DX2 analytically  !
 ! D60   D(21,20,23,26)        -80.3563         calculate D2E/DX2 analytically  !
 ! D61   D(22,20,23,24)        -80.3564         calculate D2E/DX2 analytically  !
 ! D62   D(22,20,23,25)         39.6436         calculate D2E/DX2 analytically  !
 ! D63   D(22,20,23,26)        159.6436         calculate D2E/DX2 analytically  !
 --------------------------------------------------------------------------------
 Trust Radius=3.00D-01 FncErr=1.00D-07 GrdErr=1.00D-07 EigMax=2.50D+02 EigMin=1.00D-04
 Number of steps in this run=    146 maximum allowed number of steps=    156.
 Search for a saddle point of order  1.
 GradGradGradGradGradGradGradGradGradGradGradGradGradGradGradGradGradGrad

 Leave Link  103 at Fri Dec  5 13:08:33 2025, MaxMem=   104857600 cpu:               0.0 elap:               0.1
 (Enter /usr/local/bin/g16/l202.exe)
                          Input orientation:                          
 ---------------------------------------------------------------------
 Center     Atomic      Atomic             Coordinates (Angstroms)
 Number     Number       Type             X           Y           Z
 ---------------------------------------------------------------------
      1          6           0       -1.583577   -1.653555    0.002701
      2          1           0       -1.226923   -2.662365    0.002701
      3          1           0       -1.226904   -1.149156   -0.870950
      4          1           0       -2.653577   -1.653541    0.002701
      5          6           0       -1.070235   -0.927598    1.260106
      6          1           0       -0.000235   -0.927612    1.260106
      7          1           0       -1.426890    0.081212    1.260107
      8          6           0       -1.583577   -1.653555    2.517511
      9          1           0       -1.226903   -1.149158    3.391162
     10          1           0       -1.226924   -2.662366    2.517510
     11          6           0       -3.123577   -1.653534    2.517512
     12          1           0       -3.480255   -2.476192    1.933632
     13          1           0       -3.480232   -0.736544    2.097006
     14          6           0       -3.636911   -1.789283    3.963078
     15          1           0       -4.704425   -1.861936    3.957137
     16          1           0       -3.221973   -2.669634    4.407722
     17          6           0       -3.211023   -0.553418    4.777238
     18          1           0       -2.207646   -0.683988    5.125212
     19          1           0       -3.263136    0.317262    4.157480
     20          6           0       -4.154245   -0.382759    5.982563
     21          1           0       -3.816478    0.432939    6.587088
     22          1           0       -5.145685   -0.181721    5.633952
     23          6           0       -4.156665   -1.675441    6.819563
     24          1           0       -4.504174   -1.459523    7.808258
     25          1           0       -4.804108   -2.394703    6.363078
     26          1           0       -3.163395   -2.070257    6.868906
 ---------------------------------------------------------------------
                    Distance matrix (angstroms):
                    1          2          3          4          5
     1  C    0.000000
     2  H    1.070000   0.000000
     3  H    1.070000   1.747302   0.000000
     4  H    1.070000   1.747303   1.747303   0.000000
     5  C    1.540000   2.148263   2.148263   2.148263   0.000000
     6  H    2.148263   2.468845   2.468846   3.024610   1.070000
     7  H    2.148263   3.024610   2.468846   2.468845   1.070000
     8  C    2.514810   2.732977   3.444315   2.732978   1.540000
     9  H    3.444314   3.710992   4.262112   3.710993   2.148263
    10  H    2.732977   2.514809   3.710993   3.062242   2.148263
    11  C    2.948876   3.307462   3.915794   2.558353   2.514809
    12  H    2.828889   2.973324   3.834617   2.255802   2.942783
    13  H    2.970575   3.629366   3.749199   2.431122   2.558317
    14  C    4.463091   4.717509   5.439276   4.082885   3.825752
    15  H    5.041892   5.326469   5.992631   4.459481   4.621071
    16  H    4.808426   4.835750   5.844359   4.556284   4.191915
    17  C    5.162856   5.583951   6.016117   4.931249   4.134392
    18  H    5.250680   5.578164   6.093620   5.232495   4.036347
    19  H    4.895633   5.503320   5.619763   4.638730   3.840998
    20  C    6.631893   7.037369   7.491818   6.294890   5.666530
    21  H    7.259025   7.722749   8.051786   7.004276   6.145701
    22  H    6.823920   7.295291   7.655490   6.331496   6.024629
    23  C    7.286348   7.485120   8.246482   6.980642   6.402568
    24  H    8.336321   8.550668   9.282536   8.024280   7.413041
    25  H    7.167671   7.302211   8.165717   6.754887   6.491111
    26  H    7.057919   7.158581   8.031425   6.897704   6.094720
                    6          7          8          9         10
     6  H    0.000000
     7  H    1.747303   0.000000
     8  C    2.148263   2.148263   0.000000
     9  H    2.468845   2.468846   1.070000   0.000000
    10  H    2.468846   3.024610   1.070000   1.747303   0.000000
    11  C    3.444314   2.732976   1.540000   2.148263   2.148263
    12  H    3.868110   3.348172   2.148263   2.993829   2.335182
    13  H    3.584311   2.363332   2.148263   2.631080   2.993829
    14  C    4.612369   3.960934   2.514809   2.558318   2.942784
    15  H    5.502394   4.668194   3.443202   3.594655   3.847886
    16  H    4.829257   4.549391   2.699936   2.706575   2.748304
    17  C    4.776965   3.994509   2.994203   2.492558   3.672966
    18  H    4.457697   4.016734   2.851251   2.045769   3.417002
    19  H    4.537732   3.438356   3.065051   2.623714   3.964069
    20  C    6.313023   5.473146   4.497760   3.983975   5.076653
    21  H    6.692649   5.848981   5.089279   4.407139   5.731332
    22  H    6.794302   5.747095   4.956522   4.617672   5.587709
    23  C    6.981599   6.437784   5.012875   4.540310   5.297647
    24  H    7.965343   7.397420   6.046448   5.508863   6.338707
    25  H    7.160299   6.601218   5.070454   4.814568   5.258924
    26  H    6.539866   6.253231   4.648021   4.085722   4.799495
                   11         12         13         14         15
    11  C    0.000000
    12  H    1.070000   0.000000
    13  H    1.070000   1.747303   0.000000
    14  C    1.540000   2.148263   2.148263   0.000000
    15  H    2.148263   2.443456   2.495044   1.070000   0.000000
    16  H    2.148263   2.495045   3.023730   1.070000   1.747303
    17  C    2.514809   3.443202   2.699936   1.540000   2.148263
    18  H    2.929002   3.875270   3.285159   2.148263   2.997644
    19  H    2.567686   3.577154   2.324477   2.148263   2.620374
    20  C    3.831935   4.607664   3.959421   2.514809   2.567687
    21  H    4.625466   5.498249   4.652052   3.443246   3.601603
    22  H    3.995917   4.661612   3.948614   2.766311   2.414445
    23  C    4.424409   4.997105   4.862267   2.905618   2.920326
    24  H    5.471351   6.049236   5.847184   3.955540   3.877263
    25  H    4.261677   4.623767   4.764610   2.736582   2.466238
    26  H    4.371484   4.962067   4.964897   2.957533   3.300995
                   16         17         18         19         20
    16  H    0.000000
    17  C    2.148263   0.000000
    18  H    2.342316   1.070000   0.000000
    19  H    2.997643   1.070000   1.747303   0.000000
    20  C    2.929002   1.540000   2.148263   2.148263   0.000000
    21  H    3.837842   2.148263   2.443961   2.494507   1.070000
    22  H    3.375503   2.148263   3.023766   2.443961   1.070000
    23  C    2.771110   2.514809   2.766311   3.443246   1.540000
    24  H    3.830412   3.417652   3.615830   4.245624   2.148263
    25  H    2.530248   2.905708   3.346711   3.820211   2.148263
    26  H    2.533794   2.584210   2.423977   3.614142   2.148263
                   21         22         23         24         25
    21  H    0.000000
    22  H    1.747303   0.000000
    23  C    2.148263   2.148263   0.000000
    24  H    2.354908   2.602292   1.070000   0.000000
    25  H    3.003523   2.354908   1.070000   1.747303   0.000000
    26  H    2.602292   3.003523   1.070000   1.747303   1.747303
                   26
    26  H    0.000000
 Stoichiometry    C8H18
 Framework group  C1[X(C8H18)]
 Deg. of freedom    72
 Full point group                 C1      NOp   1
 Largest Abelian subgroup         C1      NOp   1
 Largest concise Abelian subgroup C1      NOp   1
                         Standard orientation:                         
 ---------------------------------------------------------------------
 Center     Atomic      Atomic             Coordinates (Angstroms)
 Number     Number       Type             X           Y           Z
 ---------------------------------------------------------------------
      1          6           0        3.681197   -0.355103   -0.217196
      2          1           0        3.894838   -0.927376    0.661303
      3          1           0        4.591734    0.043407   -0.613445
      4          1           0        3.218927   -0.984157   -0.948972
      5          6           0        2.728546    0.800355    0.141934
      6          1           0        3.190817    1.429409    0.873710
      7          1           0        2.514905    1.372627   -0.736565
      8          6           0        1.418055    0.226798    0.712236
      9          1           0        0.756149    1.029616    0.961763
     10          1           0        1.631695   -0.345477    1.590735
     11          6           0        0.752730   -0.678569   -0.340975
     12          1           0        1.172651   -1.661030   -0.283211
     13          1           0        0.922935   -0.274768   -1.317129
     14          6           0       -0.761932   -0.751097   -0.072393
     15          1           0       -1.213493   -1.436391   -0.758954
     16          1           0       -0.930842   -1.086647    0.929493
     17          6           0       -1.383582    0.645625   -0.257643
     18          1           0       -1.255538    1.214831    0.639301
     19          1           0       -0.899761    1.146468   -1.070030
     20          6           0       -2.885858    0.502276   -0.564591
     21          1           0       -3.332117    1.473002   -0.623281
     22          1           0       -3.012332   -0.005438   -1.497935
     23          6           0       -3.563827   -0.307464    0.556247
     24          1           0       -4.616460   -0.115631    0.548171
     25          1           0       -3.390275   -1.351247    0.397202
     26          1           0       -3.155803   -0.018124    1.502132
 ---------------------------------------------------------------------
 Rotational constants (GHZ):           5.9677752           0.6867179           0.6704956
 Leave Link  202 at Fri Dec  5 13:08:33 2025, MaxMem=   104857600 cpu:               0.0 elap:               0.0
 (Enter /usr/local/bin/g16/l301.exe)
 Standard basis: STO-3G (5D, 7F)
 Ernie: Thresh=  0.10000D-02 Tol=  0.10000D-05 Strict=F.
 There are    58 symmetry adapted cartesian basis functions of A   symmetry.
 There are    58 symmetry adapted basis functions of A   symmetry.
    58 basis functions,   174 primitive gaussians,    58 cartesian basis functions
    33 alpha electrons       33 beta electrons
       nuclear repulsion energy       396.3071005213 Hartrees.
 IExCor=    0 DFT=F Ex=HF Corr=None ExCW=0 ScaHFX=  1.000000
 ScaDFX=  1.000000  1.000000  1.000000  1.000000 ScalE2=  1.000000  1.000000
 IRadAn=      5 IRanWt=     -1 IRanGd=            0 ICorTp=0 IEmpDi=  4
 NAtoms=   26 NActive=   26 NUniq=   26 SFac= 1.00D+00 NAtFMM=   60 NAOKFM=F Big=F
 Integral buffers will be    131072 words long.
 Raffenetti 1 integral format.
 Two-electron integral symmetry is turned on.
 Leave Link  301 at Fri Dec  5 13:08:33 2025, MaxMem=   104857600 cpu:               0.0 elap:               0.0
 (Enter /usr/local/bin/g16/l402.exe)
 External calculation of energy, first and second derivatives.
 Running external command "xtbint R"
         input file       "/usr/local/bin/g16/scratch/Gau-1503.EIn"
         output file      "/usr/local/bin/g16/scratch/Gau-1503.EOu"
         message file     "/usr/local/bin/g16/scratch/Gau-1503.EMs"
         fchk file        "/usr/local/bin/g16/scratch/Gau-1503.EFC"
         mat. el file     "/usr/local/bin/g16/scratch/Gau-1503.EUF"
Using prefix: Gau-1503
Generating Gau-1503_mol.tmp
Generating Gau-1503_mol.xyz via genxyz
Running: xtb mol.xyz --chrg 0 --uhf 0 --hess --grad --gfn 2 > xtbout
xtb running finished!
Warning: XTB may not have terminated normally, check Gau-1503_xtbout
Extracting data from xtb outputs via extderi
 Recovered energy= -26.3086912669     dipole=      0.000000000000      0.000000000000      0.000000000000
 Energy=    -26.3086913     NIter=   0.
 Dipole moment=       0.000000       0.000000       0.000000
 Leave Link  402 at Fri Dec  5 13:08:35 2025, MaxMem=   104857600 cpu:               0.0 elap:               2.1
 (Enter /usr/local/bin/g16/l601.exe)
 Leave Link  601 at Fri Dec  5 13:08:35 2025, MaxMem=   104857600 cpu:               0.0 elap:               0.0
 (Enter /usr/local/bin/g16/l716.exe)
 Dipole        = 0.00000000D+00 0.00000000D+00 0.00000000D+00
 ***** Axes restored to original set *****
 -------------------------------------------------------------------
 Center     Atomic                   Forces (Hartrees/Bohr)
 Number     Number              X              Y              Z
 -------------------------------------------------------------------
      1        6           0.008022889    0.011401836    0.013702388
      2        1           0.003219361   -0.010836483   -0.001294983
      3        1           0.003231001    0.004150431   -0.010725907
      4        1          -0.009610810   -0.000296810   -0.003003518
      5        6          -0.012112610   -0.022902630   -0.000468448
      6        1           0.013789874    0.001292955   -0.000413188
      7        1          -0.003272068    0.012803296    0.000283539
      8        6          -0.011983877    0.012030550   -0.020060549
      9        1           0.006062834    0.005028216    0.007524188
     10        1           0.005418530   -0.012018778    0.001246047
     11        6           0.012791820   -0.007103231    0.023524748
     12        1          -0.005712981   -0.009397691   -0.007182043
     13        1          -0.005641190    0.010897627   -0.004452002
     14        6           0.012964654    0.018886341   -0.012924176
     15        1          -0.013233774   -0.001087751   -0.000777850
     16        1           0.003339442   -0.011316009    0.004116993
     17        6          -0.023059483   -0.013208902    0.008349617
     18        1           0.011021217    0.000806734    0.005899477
     19        1          -0.000208925    0.011413501   -0.007111839
     20        6           0.015722896   -0.019036362   -0.003694689
     21        1           0.003732182    0.011151213    0.007146356
     22        1          -0.011978683    0.004159527   -0.003451620
     23        6          -0.002414855    0.016820844   -0.007690289
     24        1          -0.004288876   -0.000046940    0.011065407
     25        1          -0.005544549   -0.008899364   -0.002421098
     26        1           0.009745979   -0.004692120    0.002813440
 -------------------------------------------------------------------
 Cartesian Forces:  Max     0.023524748 RMS     0.009963129
 FormGI is forming the generalized inverse of G from B-inverse, IUseBI=4.
 Leave Link  716 at Fri Dec  5 13:08:35 2025, MaxMem=   104857600 cpu:               0.0 elap:               0.0
 (Enter /usr/local/bin/g16/l103.exe)

 GradGradGradGradGradGradGradGradGradGradGradGradGradGradGradGradGradGrad
 Berny optimization.
 Red2BG is reusing G-inverse.
 Internal  Forces:  Max     0.015468179 RMS     0.005701523
 Search for a saddle point.
 Step number   1 out of a maximum of  146
 All quantities printed in internal units (Hartrees-Bohrs-Radians)
 Swapping is turned off.
 Second derivative matrix not updated -- analytic derivatives used.
 ITU=  0
     Eigenvalues ---    0.00044   0.00157   0.00195   0.00225   0.00358
     Eigenvalues ---    0.00400   0.00452   0.03907   0.03958   0.03999
     Eigenvalues ---    0.04016   0.04058   0.04076   0.04110   0.04151
     Eigenvalues ---    0.04209   0.04527   0.04585   0.04828   0.04843
     Eigenvalues ---    0.04865   0.05005   0.05029   0.06174   0.06264
     Eigenvalues ---    0.06275   0.06326   0.06510   0.06585   0.08951
     Eigenvalues ---    0.09345   0.09936   0.10194   0.11406   0.11886
     Eigenvalues ---    0.12398   0.12474   0.14003   0.14377   0.15198
     Eigenvalues ---    0.15344   0.19721   0.21050   0.21953   0.23905
     Eigenvalues ---    0.24667   0.26224   0.28740   0.29445   0.30848
     Eigenvalues ---    0.31978   0.34388   0.35016   0.35322   0.35478
     Eigenvalues ---    0.35504   0.35681   0.35827   0.35864   0.36075
     Eigenvalues ---    0.36124   0.36406   0.36883   0.37313   0.37420
     Eigenvalues ---    0.37797   0.38200   0.38755   0.39085   0.39456
     Eigenvalues ---    0.40205   0.42183
 Eigenvectors required to have negative eigenvalues:
                          D24       D27       D23       D22       D26
   1                    0.30339   0.29736   0.29657   0.29515   0.29054
                          D25       D21       D20       D19       D7
   1                    0.28911   0.28818   0.28136   0.27993  -0.12210
 Eigenvalue     1 is   4.40D-04 should be less than     0.000000 Eigenvector:
                          D24       D27       D23       D22       D26
   1                    0.30339   0.29736   0.29657   0.29515   0.29054
                          D25       D21       D20       D19       D7
   1                    0.28911   0.28818   0.28136   0.27993  -0.12210
 RFO step:  Lambda0=1.525747869D-03 Lambda=-1.50134921D-02.
 Linear search not attempted -- option 19 set.
 Iteration  1 RMS(Cart)=  0.09039659 RMS(Int)=  0.00238059
 Iteration  2 RMS(Cart)=  0.00434383 RMS(Int)=  0.00017051
 Iteration  3 RMS(Cart)=  0.00000924 RMS(Int)=  0.00017038
 Iteration  4 RMS(Cart)=  0.00000000 RMS(Int)=  0.00017038
 ITry= 1 IFail=0 DXMaxC= 3.31D-01 DCOld= 1.00D+10 DXMaxT= 3.00D-01 DXLimC= 3.00D+00 Rises=F
 Variable       Old X    -DE/DX   Delta X   Delta X   Delta X     New X
                                 (Linear)    (Quad)   (Total)
    R1        2.02201   0.01129   0.00000   0.03078   0.03078   2.05279
    R2        2.02201   0.01179   0.00000   0.03051   0.03051   2.05251
    R3        2.02201   0.00961   0.00000   0.02874   0.02874   2.05075
    R4        2.91018  -0.00262   0.00000  -0.02647  -0.02647   2.88370
    R5        2.02201   0.01379   0.00000   0.03771   0.03771   2.05971
    R6        2.02201   0.01316   0.00000   0.03723   0.03723   2.05924
    R7        2.91018   0.00059   0.00000  -0.01967  -0.01967   2.89051
    R8        2.02201   0.01053   0.00000   0.03416   0.03416   2.05617
    R9        2.02201   0.01314   0.00000   0.03703   0.03703   2.05904
   R10        2.91018   0.00277   0.00000  -0.00984  -0.00984   2.90034
   R11        2.02201   0.01305   0.00000   0.03682   0.03682   2.05882
   R12        2.02201   0.01297   0.00000   0.03716   0.03716   2.05917
   R13        2.91018   0.00220   0.00000  -0.01723  -0.01723   2.89295
   R14        2.02201   0.01328   0.00000   0.03761   0.03761   2.05962
   R15        2.02201   0.01232   0.00000   0.03533   0.03533   2.05734
   R16        2.91018   0.00252   0.00000  -0.01414  -0.01414   2.89604
   R17        2.02201   0.01216   0.00000   0.03577   0.03577   2.05778
   R18        2.02201   0.01342   0.00000   0.03762   0.03762   2.05962
   R19        2.91018  -0.00016   0.00000  -0.01851  -0.01851   2.89167
   R20        2.02201   0.01372   0.00000   0.03735   0.03735   2.05936
   R21        2.02201   0.01301   0.00000   0.03697   0.03697   2.05897
   R22        2.91018  -0.00062   0.00000  -0.02208  -0.02208   2.88809
   R23        2.02201   0.01161   0.00000   0.03028   0.03028   2.05228
   R24        2.02201   0.01037   0.00000   0.02877   0.02877   2.05078
   R25        2.02201   0.01091   0.00000   0.03055   0.03055   2.05255
    A1        1.91063  -0.00176   0.00000  -0.01672  -0.01682   1.89381
    A2        1.91063  -0.00173   0.00000  -0.01717  -0.01731   1.89332
    A3        1.91063   0.00110   0.00000   0.01370   0.01357   1.92421
    A4        1.91063  -0.00264   0.00000  -0.01690  -0.01709   1.89354
    A5        1.91063   0.00165   0.00000   0.01654   0.01639   1.92703
    A6        1.91063   0.00338   0.00000   0.02054   0.02037   1.93100
    A7        1.91063  -0.00444   0.00000  -0.00860  -0.00863   1.90200
    A8        1.91063  -0.00260   0.00000  -0.00096  -0.00121   1.90942
    A9        1.91063   0.01263   0.00000   0.04344   0.04326   1.95389
   A10        1.91063   0.00132   0.00000  -0.02020  -0.02034   1.89029
   A11        1.91063  -0.00348   0.00000  -0.00892  -0.00900   1.90164
   A12        1.91063  -0.00343   0.00000  -0.00476  -0.00509   1.90554
   A13        1.91063  -0.00506   0.00000  -0.01284  -0.01323   1.89740
   A14        1.91063  -0.00411   0.00000  -0.01224  -0.01265   1.89798
   A15        1.91063   0.01361   0.00000   0.05030   0.05008   1.96071
   A16        1.91063   0.00148   0.00000  -0.02252  -0.02278   1.88785
   A17        1.91063  -0.00284   0.00000  -0.00148  -0.00151   1.90912
   A18        1.91063  -0.00307   0.00000  -0.00122  -0.00127   1.90936
   A19        1.91063  -0.00455   0.00000  -0.00334  -0.00325   1.90738
   A20        1.91063  -0.00282   0.00000  -0.00121  -0.00134   1.90930
   A21        1.91063   0.01543   0.00000   0.05251   0.05231   1.96294
   A22        1.91063   0.00206   0.00000  -0.02048  -0.02077   1.88987
   A23        1.91063  -0.00533   0.00000  -0.01673  -0.01706   1.89357
   A24        1.91063  -0.00479   0.00000  -0.01076  -0.01125   1.89938
   A25        1.91063  -0.00485   0.00000  -0.01548  -0.01549   1.89515
   A26        1.91063  -0.00505   0.00000  -0.00987  -0.01056   1.90008
   A27        1.91063   0.01547   0.00000   0.05310   0.05290   1.96353
   A28        1.91063   0.00204   0.00000  -0.01772  -0.01797   1.89266
   A29        1.91063  -0.00539   0.00000  -0.01435  -0.01420   1.89644
   A30        1.91063  -0.00222   0.00000   0.00433   0.00405   1.91468
   A31        1.91063  -0.00021   0.00000   0.01095   0.01093   1.92156
   A32        1.91063  -0.00382   0.00000  -0.00943  -0.00936   1.90128
   A33        1.91063   0.01075   0.00000   0.04515   0.04495   1.95558
   A34        1.91063   0.00131   0.00000  -0.02115  -0.02137   1.88926
   A35        1.91063  -0.00513   0.00000  -0.01547  -0.01613   1.89451
   A36        1.91063  -0.00290   0.00000  -0.01005  -0.01020   1.90043
   A37        1.91063  -0.00289   0.00000  -0.01095  -0.01112   1.89951
   A38        1.91063  -0.00351   0.00000  -0.00670  -0.00707   1.90356
   A39        1.91063   0.01101   0.00000   0.04589   0.04569   1.95632
   A40        1.91063   0.00098   0.00000  -0.02153  -0.02171   1.88893
   A41        1.91063  -0.00367   0.00000  -0.00575  -0.00577   1.90487
   A42        1.91063  -0.00192   0.00000  -0.00097  -0.00118   1.90946
   A43        1.91063   0.00213   0.00000   0.01744   0.01727   1.92790
   A44        1.91063   0.00336   0.00000   0.02387   0.02365   1.93428
   A45        1.91063   0.00170   0.00000   0.01402   0.01387   1.92450
   A46        1.91063  -0.00282   0.00000  -0.01951  -0.01974   1.89090
   A47        1.91063  -0.00232   0.00000  -0.01887  -0.01896   1.89167
   A48        1.91063  -0.00207   0.00000  -0.01695  -0.01715   1.89349
    D1        1.04720   0.00107   0.00000  -0.02526  -0.02528   1.02191
    D2       -3.14159  -0.00163   0.00000  -0.05585  -0.05591   3.08568
    D3       -1.04720   0.00031   0.00000  -0.03567  -0.03563  -1.08283
    D4       -1.04720   0.00154   0.00000  -0.02331  -0.02329  -1.07049
    D5        1.04720  -0.00116   0.00000  -0.05390  -0.05392   0.99328
    D6       -3.14159   0.00079   0.00000  -0.03371  -0.03364   3.10796
    D7       -3.14159   0.00169   0.00000  -0.02532  -0.02534   3.11625
    D8       -1.04720  -0.00100   0.00000  -0.05591  -0.05597  -1.10317
    D9        1.04720   0.00094   0.00000  -0.03573  -0.03569   1.01151
   D10        3.14159  -0.00313   0.00000  -0.05906  -0.05897   3.08263
   D11        1.04720   0.00068   0.00000  -0.01612  -0.01626   1.03093
   D12       -1.04720  -0.00137   0.00000  -0.03794  -0.03796  -1.08516
   D13        1.04720  -0.00329   0.00000  -0.06967  -0.06952   0.97767
   D14       -1.04720   0.00052   0.00000  -0.02673  -0.02682  -1.07402
   D15        3.14159  -0.00153   0.00000  -0.04854  -0.04852   3.09307
   D16       -1.04720  -0.00068   0.00000  -0.03655  -0.03644  -1.08364
   D17        3.14159   0.00313   0.00000   0.00638   0.00627  -3.13533
   D18        1.04720   0.00108   0.00000  -0.01543  -0.01544   1.03176
   D19        1.47716  -0.00088   0.00000   0.06554   0.06545   1.54261
   D20       -0.61724   0.00111   0.00000   0.09340   0.09351  -0.52373
   D21       -2.71163  -0.00075   0.00000   0.07516   0.07515  -2.63648
   D22       -2.71163  -0.00048   0.00000   0.07971   0.07972  -2.63191
   D23        1.47716   0.00151   0.00000   0.10757   0.10778   1.58494
   D24       -0.61724  -0.00036   0.00000   0.08933   0.08941  -0.52782
   D25       -0.61724  -0.00229   0.00000   0.05047   0.05028  -0.56695
   D26       -2.71163  -0.00031   0.00000   0.07833   0.07834  -2.63329
   D27        1.47716  -0.00217   0.00000   0.06009   0.05998   1.53714
   D28       -3.06926   0.00267   0.00000   0.05322   0.05317  -3.01609
   D29       -0.97487  -0.00090   0.00000   0.01599   0.01612  -0.95875
   D30        1.11953   0.00277   0.00000   0.04777   0.04784   1.16737
   D31       -0.97487   0.00327   0.00000   0.07105   0.07079  -0.90407
   D32        1.11953  -0.00029   0.00000   0.03382   0.03375   1.15328
   D33       -3.06926   0.00337   0.00000   0.06559   0.06546  -3.00380
   D34        1.11953  -0.00040   0.00000   0.02913   0.02913   1.14866
   D35       -3.06926  -0.00396   0.00000  -0.00810  -0.00791  -3.07717
   D36       -0.97487  -0.00030   0.00000   0.02368   0.02380  -0.95106
   D37       -1.44937  -0.00007   0.00000   0.05104   0.05108  -1.39830
   D38        0.64502  -0.00093   0.00000   0.02606   0.02586   0.67089
   D39        2.73942  -0.00024   0.00000   0.03563   0.03529   2.77471
   D40        2.73942  -0.00030   0.00000   0.04627   0.04649   2.78590
   D41       -1.44937  -0.00116   0.00000   0.02130   0.02128  -1.42810
   D42        0.64502  -0.00047   0.00000   0.03086   0.03071   0.67573
   D43        0.64502   0.00186   0.00000   0.07412   0.07448   0.71950
   D44        2.73942   0.00100   0.00000   0.04914   0.04926   2.78868
   D45       -1.44937   0.00170   0.00000   0.05871   0.05869  -1.39068
   D46        3.07073   0.00271   0.00000   0.03957   0.03944   3.11017
   D47       -1.11806  -0.00001   0.00000   0.00240   0.00236  -1.11570
   D48        0.97633   0.00224   0.00000   0.02521   0.02517   1.00150
   D49        0.97633  -0.00047   0.00000   0.00798   0.00809   0.98442
   D50        3.07073  -0.00319   0.00000  -0.02919  -0.02899   3.04173
   D51       -1.11806  -0.00094   0.00000  -0.00638  -0.00619  -1.12425
   D52       -1.11806   0.00284   0.00000   0.04952   0.04936  -1.06870
   D53        0.97633   0.00012   0.00000   0.01234   0.01228   0.98861
   D54        3.07073   0.00236   0.00000   0.03515   0.03509   3.10581
   D55        2.78631   0.00029   0.00000   0.02882   0.02875   2.81506
   D56       -1.40248   0.00020   0.00000   0.03022   0.03020  -1.37229
   D57        0.69191   0.00077   0.00000   0.03266   0.03265   0.72457
   D58        0.69191  -0.00067   0.00000   0.01764   0.01758   0.70949
   D59        2.78631  -0.00076   0.00000   0.01905   0.01902   2.80533
   D60       -1.40248  -0.00018   0.00000   0.02149   0.02148  -1.38100
   D61       -1.40248   0.00156   0.00000   0.04813   0.04816  -1.35432
   D62        0.69191   0.00147   0.00000   0.04953   0.04961   0.74152
   D63        2.78631   0.00205   0.00000   0.05197   0.05206   2.83837
         Item               Value     Threshold  Converged?
 Maximum Force            0.015468     0.000450     NO 
 RMS     Force            0.005702     0.000300     NO 
 Maximum Displacement     0.331369     0.001800     NO 
 RMS     Displacement     0.090404     0.001200     NO 
 Predicted change in Energy=-7.797725D-03
 GradGradGradGradGradGradGradGradGradGradGradGradGradGradGradGradGradGrad

 Leave Link  103 at Fri Dec  5 13:08:35 2025, MaxMem=   104857600 cpu:               0.0 elap:               0.0
 (Enter /usr/local/bin/g16/l202.exe)
                          Input orientation:                          
 ---------------------------------------------------------------------
 Center     Atomic      Atomic             Coordinates (Angstroms)
 Number     Number       Type             X           Y           Z
 ---------------------------------------------------------------------
      1          6           0       -1.523824   -1.583115   -0.077715
      2          1           0       -1.159822   -2.602188   -0.172651
      3          1           0       -1.153724   -1.004991   -0.919442
      4          1           0       -2.608021   -1.599631   -0.121624
      5          6           0       -1.048024   -0.972706    1.237452
      6          1           0        0.041414   -0.993087    1.264022
      7          1           0       -1.372357    0.066145    1.292646
      8          6           0       -1.588912   -1.733078    2.449445
      9          1           0       -1.171102   -1.292968    3.352579
     10          1           0       -1.255351   -2.768688    2.390530
     11          6           0       -3.121317   -1.694673    2.525927
     12          1           0       -3.530955   -2.529442    1.958187
     13          1           0       -3.482746   -0.768233    2.080452
     14          6           0       -3.637786   -1.785644    3.964183
     15          1           0       -4.723087   -1.882250    3.938063
     16          1           0       -3.223763   -2.677716    4.431146
     17          6           0       -3.275360   -0.551074    4.796703
     18          1           0       -2.245065   -0.621916    5.142010
     19          1           0       -3.365172    0.336522    4.170602
     20          6           0       -4.187244   -0.392057    6.015191
     21          1           0       -3.864611    0.479213    6.584739
     22          1           0       -5.207895   -0.218435    5.675673
     23          6           0       -4.155865   -1.622604    6.921012
     24          1           0       -4.528381   -1.375106    7.910669
     25          1           0       -4.771789   -2.417648    6.513270
     26          1           0       -3.138911   -1.991056    7.020016
 ---------------------------------------------------------------------
                    Distance matrix (angstroms):
                    1          2          3          4          5
     1  C    0.000000
     2  H    1.086287   0.000000
     3  H    1.086143   1.763171   0.000000
     4  H    1.085211   1.762102   1.762126   0.000000
     5  C    1.525991   2.157799   2.159723   2.161877   0.000000
     6  H    2.144379   2.469049   2.489179   3.050806   1.089953
     7  H    2.149625   3.051600   2.467481   2.510345   1.089702
     8  C    2.532442   2.795507   3.474031   2.768896   1.529592
     9  H    3.460566   3.760509   4.281751   3.772117   2.142774
    10  H    2.751344   2.570359   3.751915   3.083395   2.144323
    11  C    3.056694   3.457365   4.027114   2.698524   2.545574
    12  H    3.011479   3.188736   4.031864   2.458042   3.017918
    13  H    3.026399   3.719656   3.805228   2.511077   2.584633
    14  C    4.565829   4.890854   5.534417   4.217682   3.847441
    15  H    5.143077   5.487544   6.091411   4.586332   4.650447
    16  H    4.941434   5.045841   5.975940   4.719017   4.223811
    17  C    5.281376   5.777288   6.114057   5.072943   4.219842
    18  H    5.356269   5.774500   6.170816   5.365958   4.098968
    19  H    5.012361   5.688887   5.709528   4.769190   3.960634
    20  C    6.755437   7.234595   7.593883   6.450790   5.746186
    21  H    7.356682   7.904001   8.115694   7.132736   6.215682
    22  H    6.966793   7.501472   7.781421   6.501977   6.129540
    23  C    7.477391   7.762468   8.418254   7.210761   6.510292
    24  H    8.537266   8.842680   9.460240   8.261715   7.537018
    25  H    7.395053   7.601441   8.386370   7.026583   6.617291
    26  H    7.290590   7.484967   8.243074   7.172034   6.232727
                    6          7          8          9         10
     6  H    0.000000
     7  H    1.766788   0.000000
     8  C    2.147272   2.149949   0.000000
     9  H    2.433556   2.476088   1.088078   0.000000
    10  H    2.470501   3.042255   1.089597   1.763628   0.000000
    11  C    3.476708   2.771339   1.534793   2.155936   2.157236
    12  H    3.950199   3.440866   2.155704   3.007009   2.328633
    13  H    3.624475   2.402200   2.157240   2.690232   3.009859
    14  C    4.632012   3.962121   2.548545   2.588691   3.019727
    15  H    5.535484   4.692746   3.472937   3.647827   3.899464
    16  H    4.850777   4.561432   2.737192   2.700787   2.836730
    17  C    4.865820   4.034946   3.122637   2.657781   3.845506
    18  H    4.517139   4.006576   2.985821   2.192207   3.627507
    19  H    4.671285   3.510990   3.225015   2.852778   4.154795
    20  C    6.388771   5.516880   4.611314   4.122894   5.232833
    21  H    6.762746   5.864145   5.212839   4.565356   5.911724
    22  H    6.900580   5.831232   5.079344   4.779863   5.737470
    23  C    7.072127   6.502176   5.157166   4.663816   5.500159
    24  H    8.075078   7.472343   6.212374   5.661647   6.567094
    25  H    7.262982   6.706734   5.207113   4.921364   5.430060
    26  H    6.651457   6.336841   4.833133   4.220153   5.058127
                   11         12         13         14         15
    11  C    0.000000
    12  H    1.089482   0.000000
    13  H    1.089665   1.766106   0.000000
    14  C    1.530881   2.142118   2.146533   0.000000
    15  H    2.143591   2.399989   2.496037   1.089905   0.000000
    16  H    2.146329   2.496373   3.039566   1.088697   1.767447
    17  C    2.547150   3.469358   2.732798   1.532516   2.145975
    18  H    2.960155   3.927964   3.305511   2.163611   3.029608
    19  H    2.624914   3.624364   2.367073   2.149539   2.611696
    20  C    3.874013   4.632323   4.014972   2.539808   2.611947
    21  H    4.663928   5.528862   4.689408   3.471072   3.649436
    22  H    4.056352   4.687493   4.025424   2.801890   2.454100
    23  C    4.515779   5.083552   4.961256   3.006298   3.047481
    24  H    5.574711   6.144867   5.954249   4.066504   4.009577
    25  H    4.375575   4.722389   4.902253   2.860636   2.630726
    26  H    4.503886   5.105455   5.100275   3.103093   3.466971
                   16         17         18         19         20
    16  H    0.000000
    17  C    2.158449   0.000000
    18  H    2.385266   1.088928   0.000000
    19  H    3.028780   1.089906   1.765468   0.000000
    20  C    2.943082   1.530207   2.141807   2.146890   0.000000
    21  H    3.874899   2.146108   2.432464   2.469384   1.089765
    22  H    3.396129   2.148937   3.037426   2.443122   1.089563
    23  C    2.860333   2.536958   2.795958   3.468158   1.528313
    24  H    3.937753   3.456280   3.666919   4.274438   2.162312
    25  H    2.607539   2.944487   3.389593   3.879706   2.166286
    26  H    2.679729   2.652412   2.490063   3.686186   2.159970
                   21         22         23         24         25
    21  H    0.000000
    22  H    1.765652   0.000000
    23  C    2.148381   2.151587   0.000000
    24  H    2.374274   2.606690   1.086022   0.000000
    25  H    3.036426   2.393386   1.085224   1.760359   0.000000
    26  H    2.611194   3.038114   1.086165   1.761614   1.762118
                   26
    26  H    0.000000
 Stoichiometry    C8H18
 Framework group  C1[X(C8H18)]
 Deg. of freedom    72
 Full point group                 C1      NOp   1
 RotChk:  IX=3 Diff= 1.89D-02
 Largest Abelian subgroup         C1      NOp   1
 Largest concise Abelian subgroup C1      NOp   1
                         Standard orientation:                         
 ---------------------------------------------------------------------
 Center     Atomic      Atomic             Coordinates (Angstroms)
 Number     Number       Type             X           Y           Z
 ---------------------------------------------------------------------
      1          6           0        3.775289   -0.269548   -0.259773
      2          1           0        4.080411   -0.878022    0.586796
      3          1           0        4.657079    0.208640   -0.676292
      4          1           0        3.347709   -0.920872   -1.015177
      5          6           0        2.759743    0.779921    0.182866
      6          1           0        3.207452    1.401489    0.958241
      7          1           0        2.506298    1.417952   -0.663379
      8          6           0        1.482193    0.143198    0.732503
      9          1           0        0.822847    0.933071    1.086448
     10          1           0        1.742770   -0.487782    1.581730
     11          6           0        0.749387   -0.697888   -0.321613
     12          1           0        1.134655   -1.716755   -0.300383
     13          1           0        0.937377   -0.281920   -1.311056
     14          6           0       -0.762308   -0.745321   -0.084706
     15          1           0       -1.201458   -1.456016   -0.784673
     16          1           0       -0.949036   -1.099053    0.927849
     17          6           0       -1.430767    0.618812   -0.286966
     18          1           0       -1.292328    1.238203    0.597880
     19          1           0       -0.960576    1.121224   -1.132187
     20          6           0       -2.930754    0.488560   -0.560108
     21          1           0       -3.357452    1.485983   -0.663367
     22          1           0       -3.076545   -0.043440   -1.499718
     23          6           0       -3.656850   -0.253470    0.561461
     24          1           0       -4.723466   -0.053170    0.520774
     25          1           0       -3.507068   -1.324854    0.475358
     26          1           0       -3.284262    0.069740    1.529173
 ---------------------------------------------------------------------
 Rotational constants (GHZ):           6.0066073           0.6565352           0.6446305
 Leave Link  202 at Fri Dec  5 13:08:35 2025, MaxMem=   104857600 cpu:               0.0 elap:               0.0
 (Enter /usr/local/bin/g16/l301.exe)
 Standard basis: STO-3G (5D, 7F)
 Ernie: Thresh=  0.10000D-02 Tol=  0.10000D-05 Strict=F.
 There are    58 symmetry adapted cartesian basis functions of A   symmetry.
 There are    58 symmetry adapted basis functions of A   symmetry.
    58 basis functions,   174 primitive gaussians,    58 cartesian basis functions
    33 alpha electrons       33 beta electrons
       nuclear repulsion energy       391.7151763546 Hartrees.
 IExCor=    0 DFT=F Ex=HF Corr=None ExCW=0 ScaHFX=  1.000000
 ScaDFX=  1.000000  1.000000  1.000000  1.000000 ScalE2=  1.000000  1.000000
 IRadAn=      5 IRanWt=     -1 IRanGd=            0 ICorTp=0 IEmpDi=  4
 NAtoms=   26 NActive=   26 NUniq=   26 SFac= 1.00D+00 NAtFMM=   60 NAOKFM=F Big=F
 Integral buffers will be    131072 words long.
 Raffenetti 1 integral format.
 Two-electron integral symmetry is turned on.
 Leave Link  301 at Fri Dec  5 13:08:35 2025, MaxMem=   104857600 cpu:               0.0 elap:               0.0
 (Enter /usr/local/bin/g16/l402.exe)
 External calculation of energy and first derivatives.
 Running external command "xtbint R"
         input file       "/usr/local/bin/g16/scratch/Gau-1503.EIn"
         output file      "/usr/local/bin/g16/scratch/Gau-1503.EOu"
         message file     "/usr/local/bin/g16/scratch/Gau-1503.EMs"
         fchk file        "/usr/local/bin/g16/scratch/Gau-1503.EFC"
         mat. el file     "/usr/local/bin/g16/scratch/Gau-1503.EUF"
Using prefix: Gau-1503
Generating Gau-1503_mol.tmp
Generating Gau-1503_mol.xyz via genxyz
Running: xtb mol.xyz --chrg 0 --uhf 0 --grad --gfn 2 > xtbout
xtb running finished!
Warning: XTB may not have terminated normally, check Gau-1503_xtbout
Extracting data from xtb outputs via extderi
 Recovered energy= -26.3168964940     dipole=      0.000000000000      0.000000000000      0.000000000000
 Energy=    -26.3168965     NIter=   0.
 Dipole moment=       0.000000       0.000000       0.000000
 Leave Link  402 at Fri Dec  5 13:08:36 2025, MaxMem=   104857600 cpu:               0.0 elap:               0.4
 (Enter /usr/local/bin/g16/l716.exe)
 Dipole        = 0.00000000D+00 0.00000000D+00 0.00000000D+00
 ***** Axes restored to original set *****
 -------------------------------------------------------------------
 Center     Atomic                   Forces (Hartrees/Bohr)
 Number     Number              X              Y              Z
 -------------------------------------------------------------------
      1        6           0.001145940    0.000991710    0.001213713
      2        1           0.000128926   -0.001034105   -0.000267248
      3        1           0.000440802    0.000251307   -0.001003301
      4        1          -0.000664887    0.000277441   -0.000724096
      5        6          -0.002185857   -0.003706189   -0.000751170
      6        1           0.001451769    0.001057342    0.000083681
      7        1           0.000181890    0.001539082    0.000134572
      8        6          -0.002133434    0.001191631   -0.003152083
      9        1           0.001144772    0.000479590    0.000248077
     10        1           0.000823223   -0.001290002    0.001467525
     11        6           0.002686306   -0.001251510    0.003939425
     12        1          -0.001126577    0.000055593   -0.001519711
     13        1          -0.000824483    0.001187491   -0.000386285
     14        6           0.002560609    0.002808286   -0.001930538
     15        1          -0.001313183   -0.000513878   -0.000284796
     16        1          -0.000833287   -0.001521865    0.000841610
     17        6          -0.003940488   -0.002614791    0.001119723
     18        1           0.001396675    0.000546786   -0.000056785
     19        1           0.000238049    0.001552472   -0.000292864
     20        6           0.002279055   -0.003301687   -0.000407257
     21        1           0.000199889    0.001579223    0.000176612
     22        1          -0.001503323    0.001131811    0.000570455
     23        6          -0.000227169    0.001970819   -0.000564865
     24        1          -0.000997956   -0.000229762    0.000820731
     25        1           0.000140824   -0.001137714   -0.000311173
     26        1           0.000931914   -0.000019080    0.001036048
 -------------------------------------------------------------------
 Cartesian Forces:  Max     0.003940488 RMS     0.001469771
 Leave Link  716 at Fri Dec  5 13:08:36 2025, MaxMem=   104857600 cpu:               0.0 elap:               0.0
 (Enter /usr/local/bin/g16/l103.exe)

 GradGradGradGradGradGradGradGradGradGradGradGradGradGradGradGradGradGrad
 Berny optimization.
 FormGI is forming the generalized inverse of G from B-inverse, IUseBI=4.
 Internal  Forces:  Max     0.002845179 RMS     0.000857519
 Search for a saddle point.
 Step number   2 out of a maximum of  146
 All quantities printed in internal units (Hartrees-Bohrs-Radians)
 Swapping is turned off.
 Update second derivatives using D2CorX and points    1    2
 ITU=  0  0
     Eigenvalues ---    0.00142   0.00168   0.00214   0.00337   0.00379
     Eigenvalues ---    0.00397   0.00466   0.03908   0.03957   0.03996
     Eigenvalues ---    0.04020   0.04056   0.04072   0.04108   0.04147
     Eigenvalues ---    0.04207   0.04516   0.04579   0.04816   0.04842
     Eigenvalues ---    0.04862   0.05002   0.05025   0.06168   0.06259
     Eigenvalues ---    0.06267   0.06320   0.06502   0.06574   0.08945
     Eigenvalues ---    0.09338   0.09930   0.10187   0.11396   0.11874
     Eigenvalues ---    0.12395   0.12469   0.13998   0.14371   0.15196
     Eigenvalues ---    0.15341   0.19717   0.21047   0.21946   0.23534
     Eigenvalues ---    0.24554   0.26216   0.28703   0.29442   0.30843
     Eigenvalues ---    0.31975   0.34391   0.35017   0.35324   0.35478
     Eigenvalues ---    0.35504   0.35681   0.35825   0.35863   0.36075
     Eigenvalues ---    0.36124   0.36405   0.36882   0.37317   0.37421
     Eigenvalues ---    0.37797   0.38198   0.38751   0.38989   0.39237
     Eigenvalues ---    0.40030   0.41815
 Eigenvectors required to have negative eigenvalues:
                          D24       D27       D23       D22       D26
   1                   -0.22956  -0.22755  -0.22443  -0.22381  -0.22242
                          D25       D21       D20       D19       D37
   1                   -0.22180  -0.21937  -0.21424  -0.21362   0.20186
 Eigenvalue     1 is   1.42D-03 should be less than     0.000000 Eigenvector:
                          D24       D27       D23       D22       D26
   1                   -0.22956  -0.22755  -0.22443  -0.22381  -0.22242
                          D25       D21       D20       D19       D37
   1                   -0.22180  -0.21937  -0.21424  -0.21362   0.20186
 RFO step:  Lambda0=3.015752550D-03 Lambda=-1.21246624D-03.
 Linear search not attempted -- option 19 set.
 Iteration  1 RMS(Cart)=  0.10440515 RMS(Int)=  0.00398640
 Iteration  2 RMS(Cart)=  0.00670130 RMS(Int)=  0.00002277
 Iteration  3 RMS(Cart)=  0.00001956 RMS(Int)=  0.00001892
 Iteration  4 RMS(Cart)=  0.00000000 RMS(Int)=  0.00001892
 ITry= 1 IFail=0 DXMaxC= 4.07D-01 DCOld= 1.00D+10 DXMaxT= 3.00D-01 DXLimC= 3.00D+00 Rises=F
 Variable       Old X    -DE/DX   Delta X   Delta X   Delta X     New X
                                 (Linear)    (Quad)   (Total)
    R1        2.05279   0.00104   0.00000   0.00348   0.00348   2.05626
    R2        2.05251   0.00106   0.00000   0.00329   0.00329   2.05581
    R3        2.05075   0.00069   0.00000   0.00327   0.00327   2.05402
    R4        2.88370   0.00015   0.00000  -0.00288  -0.00288   2.88083
    R5        2.05971   0.00143   0.00000   0.00553   0.00553   2.06525
    R6        2.05924   0.00142   0.00000   0.00533   0.00533   2.06457
    R7        2.89051   0.00091   0.00000  -0.00268  -0.00268   2.88783
    R8        2.05617   0.00084   0.00000   0.00430   0.00430   2.06047
    R9        2.05904   0.00140   0.00000   0.00520   0.00520   2.06424
   R10        2.90034   0.00048   0.00000  -0.00088  -0.00088   2.89946
   R11        2.05882   0.00117   0.00000   0.00552   0.00552   2.06434
   R12        2.05917   0.00144   0.00000   0.00563   0.00563   2.06479
   R13        2.89295   0.00102   0.00000  -0.00263  -0.00263   2.89032
   R14        2.05962   0.00136   0.00000   0.00514   0.00514   2.06476
   R15        2.05734   0.00129   0.00000   0.00621   0.00621   2.06355
   R16        2.89604   0.00036   0.00000  -0.00054  -0.00054   2.89550
   R17        2.05778   0.00127   0.00000   0.00614   0.00614   2.06392
   R18        2.05962   0.00141   0.00000   0.00486   0.00486   2.06448
   R19        2.89167   0.00056   0.00000  -0.00372  -0.00372   2.88795
   R20        2.05936   0.00141   0.00000   0.00557   0.00557   2.06492
   R21        2.05897   0.00141   0.00000   0.00537   0.00537   2.06435
   R22        2.88809   0.00011   0.00000  -0.00443  -0.00443   2.88367
   R23        2.05228   0.00104   0.00000   0.00330   0.00330   2.05558
   R24        2.05078   0.00087   0.00000   0.00318   0.00318   2.05396
   R25        2.05255   0.00097   0.00000   0.00385   0.00385   2.05641
    A1        1.89381  -0.00030   0.00000  -0.00264  -0.00264   1.89117
    A2        1.89332  -0.00028   0.00000  -0.00301  -0.00301   1.89031
    A3        1.92421   0.00023   0.00000   0.00238   0.00238   1.92658
    A4        1.89354  -0.00049   0.00000  -0.00209  -0.00209   1.89145
    A5        1.92703   0.00015   0.00000   0.00337   0.00336   1.93039
    A6        1.93100   0.00065   0.00000   0.00172   0.00172   1.93272
    A7        1.90200  -0.00085   0.00000   0.00093   0.00093   1.90293
    A8        1.90942  -0.00050   0.00000   0.00184   0.00181   1.91124
    A9        1.95389   0.00272   0.00000   0.00662   0.00660   1.96048
   A10        1.89029  -0.00005   0.00000  -0.01197  -0.01196   1.87832
   A11        1.90164  -0.00080   0.00000  -0.00021  -0.00022   1.90141
   A12        1.90554  -0.00059   0.00000   0.00212   0.00209   1.90763
   A13        1.89740  -0.00103   0.00000  -0.00083  -0.00087   1.89653
   A14        1.89798  -0.00059   0.00000  -0.00063  -0.00066   1.89733
   A15        1.96071   0.00260   0.00000   0.00870   0.00866   1.96938
   A16        1.88785  -0.00006   0.00000  -0.01306  -0.01306   1.87479
   A17        1.90912  -0.00049   0.00000   0.00276   0.00275   1.91187
   A18        1.90936  -0.00051   0.00000   0.00216   0.00215   1.91151
   A19        1.90738  -0.00071   0.00000   0.00140   0.00140   1.90878
   A20        1.90930  -0.00048   0.00000   0.00304   0.00301   1.91231
   A21        1.96294   0.00279   0.00000   0.01473   0.01468   1.97762
   A22        1.88987   0.00000   0.00000  -0.01450  -0.01452   1.87534
   A23        1.89357  -0.00103   0.00000  -0.00412  -0.00418   1.88940
   A24        1.89938  -0.00067   0.00000  -0.00174  -0.00182   1.89756
   A25        1.89515  -0.00089   0.00000  -0.00616  -0.00619   1.88896
   A26        1.90008  -0.00074   0.00000   0.00229   0.00221   1.90228
   A27        1.96353   0.00285   0.00000   0.01372   0.01367   1.97720
   A28        1.89266  -0.00002   0.00000  -0.01458  -0.01458   1.87808
   A29        1.89644  -0.00096   0.00000   0.00181   0.00182   1.89826
   A30        1.91468  -0.00032   0.00000   0.00175   0.00169   1.91637
   A31        1.92156  -0.00001   0.00000  -0.00106  -0.00105   1.92051
   A32        1.90128  -0.00056   0.00000   0.00563   0.00560   1.90688
   A33        1.95558   0.00176   0.00000   0.00610   0.00608   1.96166
   A34        1.88926  -0.00008   0.00000  -0.00940  -0.00940   1.87987
   A35        1.89451  -0.00067   0.00000  -0.00288  -0.00288   1.89163
   A36        1.90043  -0.00051   0.00000   0.00104   0.00099   1.90142
   A37        1.89951  -0.00049   0.00000   0.00016   0.00015   1.89966
   A38        1.90356  -0.00046   0.00000   0.00387   0.00386   1.90742
   A39        1.95632   0.00192   0.00000   0.00315   0.00314   1.95946
   A40        1.88893  -0.00018   0.00000  -0.01073  -0.01072   1.87820
   A41        1.90487  -0.00061   0.00000   0.00183   0.00183   1.90669
   A42        1.90946  -0.00025   0.00000   0.00117   0.00116   1.91061
   A43        1.92790   0.00022   0.00000   0.00324   0.00324   1.93114
   A44        1.93428   0.00055   0.00000   0.00324   0.00324   1.93752
   A45        1.92450   0.00031   0.00000   0.00095   0.00095   1.92545
   A46        1.89090  -0.00041   0.00000  -0.00209  -0.00210   1.88880
   A47        1.89167  -0.00038   0.00000  -0.00137  -0.00137   1.89030
   A48        1.89349  -0.00033   0.00000  -0.00425  -0.00425   1.88924
    D1        1.02191   0.00042   0.00000  -0.04630  -0.04630   0.97562
    D2        3.08568  -0.00043   0.00000  -0.05915  -0.05915   3.02652
    D3       -1.08283   0.00026   0.00000  -0.05088  -0.05088  -1.13371
    D4       -1.07049   0.00054   0.00000  -0.04670  -0.04670  -1.11718
    D5        0.99328  -0.00031   0.00000  -0.05955  -0.05955   0.93372
    D6        3.10796   0.00039   0.00000  -0.05128  -0.05128   3.05668
    D7        3.11625   0.00064   0.00000  -0.04740  -0.04740   3.06885
    D8       -1.10317  -0.00021   0.00000  -0.06025  -0.06026  -1.16343
    D9        1.01151   0.00048   0.00000  -0.05198  -0.05198   0.95953
   D10        3.08263  -0.00086   0.00000  -0.08273  -0.08274   2.99989
   D11        1.03093   0.00012   0.00000  -0.06631  -0.06632   0.96462
   D12       -1.08516  -0.00051   0.00000  -0.07422  -0.07423  -1.15939
   D13        0.97767  -0.00098   0.00000  -0.08798  -0.08798   0.88969
   D14       -1.07402  -0.00001   0.00000  -0.07156  -0.07156  -1.14558
   D15        3.09307  -0.00063   0.00000  -0.07947  -0.07947   3.01360
   D16       -1.08364  -0.00012   0.00000  -0.07466  -0.07465  -1.15829
   D17       -3.13533   0.00085   0.00000  -0.05824  -0.05823   3.08962
   D18        1.03176   0.00023   0.00000  -0.06614  -0.06614   0.96562
   D19        1.54261  -0.00062   0.00000   0.06565   0.06563   1.60825
   D20       -0.52373   0.00008   0.00000   0.08062   0.08064  -0.44308
   D21       -2.63648  -0.00058   0.00000   0.07099   0.07098  -2.56550
   D22       -2.63191  -0.00055   0.00000   0.07219   0.07219  -2.55972
   D23        1.58494   0.00014   0.00000   0.08716   0.08720   1.67213
   D24       -0.52782  -0.00052   0.00000   0.07753   0.07754  -0.45029
   D25       -0.56695  -0.00122   0.00000   0.05925   0.05923  -0.50773
   D26       -2.63329  -0.00052   0.00000   0.07422   0.07423  -2.55906
   D27        1.53714  -0.00118   0.00000   0.06459   0.06457   1.60171
   D28       -3.01609   0.00072   0.00000  -0.03726  -0.03727  -3.05337
   D29       -0.95875  -0.00022   0.00000  -0.05690  -0.05690  -1.01565
   D30        1.16737   0.00073   0.00000  -0.04403  -0.04400   1.12337
   D31       -0.90407   0.00091   0.00000  -0.02891  -0.02894  -0.93302
   D32        1.15328  -0.00003   0.00000  -0.04855  -0.04857   1.10471
   D33       -3.00380   0.00092   0.00000  -0.03568  -0.03567  -3.03947
   D34        1.14866  -0.00002   0.00000  -0.04950  -0.04951   1.09915
   D35       -3.07717  -0.00097   0.00000  -0.06914  -0.06913   3.13688
   D36       -0.95106  -0.00002   0.00000  -0.05627  -0.05623  -1.00730
   D37       -1.39830   0.00034   0.00000  -0.11603  -0.11603  -1.51433
   D38        0.67089  -0.00010   0.00000  -0.12470  -0.12472   0.54617
   D39        2.77471   0.00001   0.00000  -0.11573  -0.11572   2.65899
   D40        2.78590   0.00030   0.00000  -0.11821  -0.11823   2.66768
   D41       -1.42810  -0.00013   0.00000  -0.12688  -0.12691  -1.55501
   D42        0.67573  -0.00003   0.00000  -0.11791  -0.11791   0.55781
   D43        0.71950   0.00107   0.00000  -0.10267  -0.10265   0.61685
   D44        2.78868   0.00064   0.00000  -0.11134  -0.11133   2.67735
   D45       -1.39068   0.00075   0.00000  -0.10236  -0.10234  -1.49302
   D46        3.11017   0.00087   0.00000   0.08382   0.08382  -3.08920
   D47       -1.11570   0.00012   0.00000   0.07322   0.07322  -1.04249
   D48        1.00150   0.00073   0.00000   0.07941   0.07941   1.08090
   D49        0.98442   0.00019   0.00000   0.08318   0.08319   1.06760
   D50        3.04173  -0.00056   0.00000   0.07258   0.07258   3.11432
   D51       -1.12425   0.00006   0.00000   0.07877   0.07878  -1.04548
   D52       -1.06870   0.00095   0.00000   0.09545   0.09545  -0.97325
   D53        0.98861   0.00020   0.00000   0.08485   0.08485   1.07346
   D54        3.10581   0.00081   0.00000   0.09104   0.09104  -3.08633
   D55        2.81506   0.00037   0.00000   0.06094   0.06094   2.87600
   D56       -1.37229   0.00035   0.00000   0.06256   0.06256  -1.30973
   D57        0.72457   0.00049   0.00000   0.05996   0.05996   0.78453
   D58        0.70949   0.00016   0.00000   0.05748   0.05747   0.76696
   D59        2.80533   0.00014   0.00000   0.05909   0.05909   2.86443
   D60       -1.38100   0.00028   0.00000   0.05650   0.05650  -1.32450
   D61       -1.35432   0.00087   0.00000   0.06871   0.06871  -1.28562
   D62        0.74152   0.00086   0.00000   0.07032   0.07032   0.81184
   D63        2.83837   0.00100   0.00000   0.06773   0.06773   2.90610
         Item               Value     Threshold  Converged?
 Maximum Force            0.002845     0.000450     NO 
 RMS     Force            0.000858     0.000300     NO 
 Maximum Displacement     0.407067     0.001800     NO 
 RMS     Displacement     0.105162     0.001200     NO 
 Predicted change in Energy= 3.467681D-04
 GradGradGradGradGradGradGradGradGradGradGradGradGradGradGradGradGradGrad

 Leave Link  103 at Fri Dec  5 13:08:36 2025, MaxMem=   104857600 cpu:               0.0 elap:               0.0
 (Enter /usr/local/bin/g16/l202.exe)
                          Input orientation:                          
 ---------------------------------------------------------------------
 Center     Atomic      Atomic             Coordinates (Angstroms)
 Number     Number       Type             X           Y           Z
 ---------------------------------------------------------------------
      1          6           0       -1.517001   -1.518439   -0.118208
      2          1           0       -1.047584   -2.487241   -0.276608
      3          1           0       -1.221591   -0.857711   -0.930406
      4          1           0       -2.595095   -1.650670   -0.159022
      5          6           0       -1.094973   -0.937397    1.226518
      6          1           0       -0.004023   -0.885641    1.265743
      7          1           0       -1.477970    0.081514    1.320013
      8          6           0       -1.594525   -1.774705    2.403243
      9          1           0       -1.142718   -1.393483    3.319436
     10          1           0       -1.250571   -2.803205    2.272449
     11          6           0       -3.122720   -1.758542    2.539329
     12          1           0       -3.544373   -2.602474    1.988576
     13          1           0       -3.520251   -0.844157    2.092411
     14          6           0       -3.602172   -1.845004    3.989154
     15          1           0       -4.692313   -1.918523    3.984842
     16          1           0       -3.211193   -2.760096    4.438791
     17          6           0       -3.193168   -0.635020    4.835549
     18          1           0       -2.197193   -0.791582    5.255519
     19          1           0       -3.149762    0.251806    4.199023
     20          6           0       -4.165341   -0.373364    5.985298
     21          1           0       -3.850234    0.528606    6.515556
     22          1           0       -5.162304   -0.186955    5.579502
     23          6           0       -4.225989   -1.539233    6.967975
     24          1           0       -4.702644   -1.233606    7.896754
     25          1           0       -4.791365   -2.369632    6.553061
     26          1           0       -3.222598   -1.891672    7.198583
 ---------------------------------------------------------------------
                    Distance matrix (angstroms):
                    1          2          3          4          5
     1  C    0.000000
     2  H    1.088127   0.000000
     3  H    1.087886   1.764397   0.000000
     4  H    1.086940   1.763085   1.763614   0.000000
     5  C    1.524469   2.159549   2.162107   2.163064   0.000000
     6  H    2.145893   2.456214   2.511239   3.054322   1.092881
[...]
 ! A22   A(12,11,13)           107.1815         -DE/DX =    0.0                 !
 ! A23   A(12,11,14)           108.5296         -DE/DX =    0.0                 !
 ! A24   A(13,11,14)           108.3274         -DE/DX =    0.0                 !
 ! A25   A(11,14,15)           108.9124         -DE/DX =    0.0                 !
 ! A26   A(11,14,16)           108.9947         -DE/DX =    0.0                 !
 ! A27   A(11,14,17)           112.4327         -DE/DX =    0.0                 !
 ! A28   A(15,14,16)           107.652          -DE/DX =    0.0                 !
 ! A29   A(15,14,17)           108.6317         -DE/DX =    0.0                 !
 ! A30   A(16,14,17)           110.0951         -DE/DX =    0.0                 !
 ! A31   A(14,17,18)           109.8244         -DE/DX =    0.0                 !
 ! A32   A(14,17,19)           108.4569         -DE/DX =    0.0                 !
 ! A33   A(14,17,20)           113.2607         -DE/DX =    0.0                 !
 ! A34   A(18,17,19)           107.5256         -DE/DX =    0.0                 !
 ! A35   A(18,17,20)           108.9795         -DE/DX =    0.0                 !
 ! A36   A(19,17,20)           108.6284         -DE/DX =    0.0                 !
 ! A37   A(17,20,21)           108.5799         -DE/DX =    0.0                 !
 ! A38   A(17,20,22)           109.2833         -DE/DX =    0.0                 !
 ! A39   A(17,20,23)           113.1885         -DE/DX =    0.0                 !
 ! A40   A(21,20,22)           107.5435         -DE/DX =    0.0                 !
 ! A41   A(21,20,23)           108.6976         -DE/DX =    0.0                 !
 ! A42   A(22,20,23)           109.3897         -DE/DX =    0.0                 !
 ! A43   A(20,23,24)           110.3195         -DE/DX =    0.0                 !
 ! A44   A(20,23,25)           111.1172         -DE/DX =    0.0                 !
 ! A45   A(20,23,26)           110.4459         -DE/DX =    0.0                 !
 ! A46   A(24,23,25)           108.0743         -DE/DX =    0.0                 !
 ! A47   A(24,23,26)           108.3218         -DE/DX =    0.0                 !
 ! A48   A(25,23,26)           108.474          -DE/DX =    0.0                 !
 ! D1    D(2,1,5,6)             60.4072         -DE/DX =    0.0                 !
 ! D2    D(2,1,5,7)            177.7971         -DE/DX =    0.0                 !
 ! D3    D(2,1,5,8)            -60.3798         -DE/DX =    0.0                 !
 ! D4    D(3,1,5,6)            -59.449          -DE/DX =    0.0                 !
 ! D5    D(3,1,5,7)             57.9408         -DE/DX =    0.0                 !
 ! D6    D(3,1,5,8)            179.7639         -DE/DX =    0.0                 !
 ! D7    D(4,1,5,6)           -179.6473         -DE/DX =    0.0                 !
 ! D8    D(4,1,5,7)            -62.2574         -DE/DX =    0.0                 !
 ! D9    D(4,1,5,8)             59.5657         -DE/DX =    0.0                 !
 ! D10   D(1,5,8,9)            168.0415         -DE/DX =    0.0                 !
 ! D11   D(1,5,8,10)            52.1751         -DE/DX =    0.0                 !
 ! D12   D(1,5,8,11)           -70.2713         -DE/DX =    0.0                 !
 ! D13   D(6,5,8,9)             47.3367         -DE/DX =    0.0                 !
 ! D14   D(6,5,8,10)           -68.5298         -DE/DX =    0.0                 !
 ! D15   D(6,5,8,11)           169.0238         -DE/DX =    0.0                 !
 ! D16   D(7,5,8,9)            -69.9647         -DE/DX =    0.0                 !
 ! D17   D(7,5,8,10)           174.1688         -DE/DX =    0.0                 !
 ! D18   D(7,5,8,11)            51.7224         -DE/DX =    0.0                 !
 ! D19   D(5,8,11,12)          117.8145         -DE/DX =    0.0                 !
 ! D20   D(5,8,11,13)            0.3019         -DE/DX =    0.0                 !
 ! D21   D(5,8,11,14)         -120.828          -DE/DX =    0.0                 !
 ! D22   D(9,8,11,12)         -120.8938         -DE/DX =    0.0                 !
 ! D23   D(9,8,11,13)          121.5937         -DE/DX =    0.0                 !
 ! D24   D(9,8,11,14)            0.4637         -DE/DX =    0.0                 !
 ! D25   D(10,8,11,12)          -3.8367         -DE/DX =    0.0                 !
 ! D26   D(10,8,11,13)        -121.3493         -DE/DX =    0.0                 !
 ! D27   D(10,8,11,14)         117.5208         -DE/DX =    0.0                 !
 ! D28   D(8,11,14,15)        -169.252          -DE/DX =    0.0                 !
 ! D29   D(8,11,14,16)         -52.0624         -DE/DX =    0.0                 !
 ! D30   D(8,11,14,17)          70.2965         -DE/DX =    0.0                 !
 ! D31   D(12,11,14,15)        -47.2352         -DE/DX =    0.0                 !
 ! D32   D(12,11,14,16)         69.9544         -DE/DX =    0.0                 !
 ! D33   D(12,11,14,17)       -167.6867         -DE/DX =    0.0                 !
 ! D34   D(13,11,14,15)         68.8192         -DE/DX =    0.0                 !
 ! D35   D(13,11,14,16)       -173.9913         -DE/DX =    0.0                 !
 ! D36   D(13,11,14,17)        -51.6323         -DE/DX =    0.0                 !
 ! D37   D(11,14,17,18)        -60.3882         -DE/DX =    0.0                 !
 ! D38   D(11,14,17,19)         56.8559         -DE/DX =    0.0                 !
 ! D39   D(11,14,17,20)        177.5204         -DE/DX =    0.0                 !
 ! D40   D(15,14,17,18)        178.9985         -DE/DX =    0.0                 !
 ! D41   D(15,14,17,19)        -63.7574         -DE/DX =    0.0                 !
 ! D42   D(15,14,17,20)         56.9072         -DE/DX =    0.0                 !
 ! D43   D(16,14,17,18)         61.3466         -DE/DX =    0.0                 !
 ! D44   D(16,14,17,19)        178.5907         -DE/DX =    0.0                 !
 ! D45   D(16,14,17,20)        -60.7447         -DE/DX =    0.0                 !
 ! D46   D(14,17,20,21)       -170.031          -DE/DX =    0.0                 !
 ! D47   D(14,17,20,22)        -52.9974         -DE/DX =    0.0                 !
 ! D48   D(14,17,20,23)         69.1775         -DE/DX =    0.0                 !
 ! D49   D(18,17,20,21)         67.4075         -DE/DX =    0.0                 !
 ! D50   D(18,17,20,22)       -175.559          -DE/DX =    0.0                 !
 ! D51   D(18,17,20,23)        -53.384          -DE/DX =    0.0                 !
 ! D52   D(19,17,20,21)        -49.4636         -DE/DX =    0.0                 !
 ! D53   D(19,17,20,22)         67.57           -DE/DX =    0.0                 !
 ! D54   D(19,17,20,23)       -170.2551         -DE/DX =    0.0                 !
 ! D55   D(17,20,23,24)        175.8476         -DE/DX =    0.0                 !
 ! D56   D(17,20,23,25)        -64.3065         -DE/DX =    0.0                 !
 ! D57   D(17,20,23,26)         56.1249         -DE/DX =    0.0                 !
 ! D58   D(21,20,23,24)         55.1229         -DE/DX =    0.0                 !
 ! D59   D(21,20,23,25)        174.9687         -DE/DX =    0.0                 !
 ! D60   D(21,20,23,26)        -64.5998         -DE/DX =    0.0                 !
 ! D61   D(22,20,23,24)        -62.0369         -DE/DX =    0.0                 !
 ! D62   D(22,20,23,25)         57.809          -DE/DX =    0.0                 !
 ! D63   D(22,20,23,26)        178.2404         -DE/DX =    0.0                 !
 --------------------------------------------------------------------------------
 Largest change from initial coordinates is atom   26       1.493 Angstoms.
 GradGradGradGradGradGradGradGradGradGradGradGradGradGradGradGradGradGrad

 Leave Link  103 at Fri Dec  5 13:08:45 2025, MaxMem=   104857600 cpu:               0.0 elap:               0.0
 (Enter /usr/local/bin/g16/l202.exe)
                          Input orientation:                          
 ---------------------------------------------------------------------
 Center     Atomic      Atomic             Coordinates (Angstroms)
 Number     Number       Type             X           Y           Z
 ---------------------------------------------------------------------
      1          6           0       -1.289116   -1.165461    0.145845
      2          1           0       -0.897411   -2.112435   -0.219753
      3          1           0       -0.777900   -0.358971   -0.375334
      4          1           0       -2.346430   -1.116558   -0.102707
      5          6           0       -1.076176   -1.049314    1.650502
      6          1           0       -0.004326   -1.096247    1.858998
      7          1           0       -1.437908   -0.078978    1.997994
      8          6           0       -1.782091   -2.160182    2.428833
      9          1           0       -1.420568   -2.146981    3.458640
     10          1           0       -1.490097   -3.121789    2.001674
     11          6           0       -3.314493   -2.029524    2.426848
     12          1           0       -3.757363   -2.898648    1.936704
     13          1           0       -3.608948   -1.149829    1.851294
     14          6           0       -3.909803   -1.907254    3.830702
     15          1           0       -4.996046   -2.011714    3.765287
     16          1           0       -3.535254   -2.725564    4.447825
     17          6           0       -3.587139   -0.565676    4.485832
     18          1           0       -2.505509   -0.448852    4.577135
     19          1           0       -3.950835    0.233794    3.834800
     20          6           0       -4.223634   -0.399111    5.866222
     21          1           0       -4.097076    0.638541    6.185130
     22          1           0       -5.296491   -0.593145    5.794654
     23          6           0       -3.613429   -1.312965    6.922800
     24          1           0       -4.047847   -1.105357    7.898269
     25          1           0       -3.795170   -2.358541    6.688362
     26          1           0       -2.538609   -1.155668    6.986527
 ---------------------------------------------------------------------
                    Distance matrix (angstroms):
                    1          2          3          4          5
     1  C    0.000000
     2  H    1.088051   0.000000
     3  H    1.087839   1.764404   0.000000
     4  H    1.087237   1.762137   1.763108   0.000000
     5  C    1.524082   2.158712   2.160915   2.166059   0.000000
     6  H    2.142515   2.480211   2.476738   3.055185   1.092948
     7  H    2.152450   3.057039   2.479252   2.512953   1.092315
     8  C    2.538608   2.792839   3.480820   2.795769   1.529098
     9  H    3.457640   3.715571   4.278943   3.821281   2.143091
    10  H    2.704018   2.510938   3.713563   3.030293   2.142382
    11  C    3.170447   3.585200   4.132466   2.858199   2.563901
    12  H    3.507614   3.667119   4.546721   3.053813   3.269665
    13  H    2.879309   3.545177   3.687568   2.326624   2.542706
    14  C    4.582186   5.052009   5.467790   4.305931   3.676789
    15  H    5.249556   5.717473   6.137512   4.773169   4.556743
    16  H    5.097656   5.396335   6.038760   4.970870   4.084348
    17  C    4.947336   5.636456   5.618316   4.785135   3.818106
    18  H    4.650750   5.325751   5.245918   4.729911   3.311907
    19  H    4.759312   5.591743   5.305102   4.461113   3.831604
    20  C    6.474675   7.144113   7.129637   6.298155   5.301090
    21  H    6.900146   7.669958   7.419679   6.758848   5.704168
    22  H    6.949507   7.604817   7.651225   6.614809   5.932381
    23  C    7.165982   7.683227   7.887527   7.141541   5.856986
    24  H    8.228869   8.765942   8.927606   8.179888   6.918711
    25  H    7.106918   7.495308   7.937128   7.054076   5.872566
    26  H    6.953866   7.452477   7.611295   7.091946   5.533821
                    6          7          8          9         10
     6  H    0.000000
     7  H    1.763324   0.000000
     8  C    2.148748   2.153019   0.000000
     9  H    2.380890   2.531881   1.091502   0.000000
    10  H    2.516086   3.043260   1.091977   1.754376   0.000000
    11  C    3.485781   2.740460   1.537964   2.159941   2.168464
    12  H    4.164129   3.651598   2.165461   2.888235   2.279146
    13  H    3.605029   2.425213   2.166049   2.892555   2.898407
    14  C    4.449506   3.579340   2.560540   2.528278   3.267325
    15  H    5.421189   4.418047   3.483914   3.591152   4.078514
    16  H    4.671633   4.171925   2.733051   2.405232   3.212992
    17  C    4.474183   3.323463   3.167316   2.872225   4.135497
    18  H    3.750108   2.815768   2.840279   2.304727   3.848201
    19  H    4.609527   3.128336   3.522969   3.494543   4.547034
    20  C    5.860581   4.777651   4.569262   4.087625   5.460763
    21  H    6.202863   5.011798   5.225109   4.728273   6.199816
    22  H    6.614342   5.437616   5.112276   4.784783   5.938802
    23  C    6.222112   5.523525   4.926186   4.183852   5.656665
    24  H    7.267939   6.532877   6.013404   5.262877   6.736313
    25  H    6.267906   5.722993   4.715445   4.014299   5.278348
    26  H    5.719936   5.220753   4.727995   3.831279   5.460198
                   11         12         13         14         15
    11  C    0.000000
    12  H    1.091673   0.000000
    13  H    1.091709   1.757182   0.000000
    14  C    1.529755   2.143205   2.140621   0.000000
    15  H    2.149269   2.380064   2.515999   1.093213   0.000000
    16  H    2.148850   2.526860   3.038148   1.091220   1.763336
    17  C    2.540984   3.459738   2.698610   1.527462   2.143648
    18  H    2.788676   3.813203   3.023103   2.157810   3.050313
    19  H    2.740414   3.667750   2.442457   2.141445   2.477822
    20  C    3.913321   4.680407   4.130504   2.552711   2.758811
    21  H    4.675007   5.538613   4.713668   3.472676   3.699681
    22  H    4.163366   4.750583   4.325250   2.739872   2.494181
    23  C    4.562499   5.234143   5.074130   3.162608   3.517068
    24  H    5.597173   6.232217   6.063045   4.148156   4.336139
    25  H    4.301140   4.782405   4.989277   2.895345   3.179113
    26  H    4.707047   5.479421   5.245595   3.521972   4.141038
                   16         17         18         19         20
    16  H    0.000000
    17  C    2.160846   0.000000
    18  H    2.502103   1.091745   0.000000
    19  H    3.050624   1.093283   1.762394   0.000000
    20  C    2.810357   1.529166   2.148529   2.145149   0.000000
    21  H    3.827672   2.144245   2.510210   2.389405   1.092905
    22  H    3.076218   2.153057   3.048402   2.517071   1.092609
    23  C    2.850798   2.549107   2.734286   3.470165   1.524413
    24  H    3.846217   3.485432   3.720180   4.279546   2.158448
    25  H    2.285228   2.847592   3.125287   3.858399   2.167686
    26  H    3.146884   2.775064   2.511146   3.722682   2.160271
                   21         22         23         24         25
    21  H    0.000000
    22  H    1.762986   0.000000
    23  C    2.141599   2.150245   0.000000
    24  H    2.445087   2.499334   1.087824   0.000000
    25  H    3.053996   2.483808   1.086839   1.760167   0.000000
    26  H    2.508035   3.056617   1.088137   1.763974   1.764866
                   26
    26  H    0.000000
 Stoichiometry    C8H18
 Framework group  C1[X(C8H18)]
 Deg. of freedom    72
 Full point group                 C1      NOp   1
 RotChk:  IX=3 Diff= 2.57D-15
 Largest Abelian subgroup         C1      NOp   1
 Largest concise Abelian subgroup C1      NOp   1
                         Standard orientation:                         
 ---------------------------------------------------------------------
 Center     Atomic      Atomic             Coordinates (Angstroms)
 Number     Number       Type             X           Y           Z
 ---------------------------------------------------------------------
      1          6           0        3.645037    0.212148   -0.389314
      2          1           0        4.216968   -0.161160    0.457675
      3          1           0        4.272077    0.903229   -0.948440
      4          1           0        3.404827   -0.629428   -1.034396
      5          6           0        2.378410    0.909534    0.092492
      6          1           0        2.660726    1.750643    0.730747
      7          1           0        1.833933    1.313287   -0.764060
      8          6           0        1.459709   -0.024805    0.880616
      9          1           0        0.691734    0.575538    1.371714
     10          1           0        2.044689   -0.500618    1.670434
     11          6           0        0.785458   -1.097737    0.009103
     12          1           0        1.100442   -2.090043    0.337530
     13          1           0        1.105508   -0.984782   -1.028508
     14          6           0       -0.742401   -1.034066    0.050873
     15          1           0       -1.147577   -1.929630   -0.427573
     16          1           0       -1.069724   -1.038177    1.091835
     17          6           0       -1.294416    0.195426   -0.667992
     18          1           0       -0.915435    1.102836   -0.193768
     19          1           0       -0.930485    0.186084   -1.698882
     20          6           0       -2.822563    0.246752   -0.689911
     21          1           0       -3.134454    1.046850   -1.365934
     22          1           0       -3.209432   -0.692982   -1.091192
     23          6           0       -3.434373    0.500774    0.683041
     24          1           0       -4.514573    0.601035    0.602561
     25          1           0       -3.221638   -0.318924    1.364258
     26          1           0       -3.036757    1.418088    1.112549
 ---------------------------------------------------------------------
 Rotational constants (GHZ):           4.5040806           0.7192648           0.7030853
 Leave Link  202 at Fri Dec  5 13:08:45 2025, MaxMem=   104857600 cpu:               0.0 elap:               0.0
 (Enter /usr/local/bin/g16/l601.exe)
 Leave Link  601 at Fri Dec  5 13:08:46 2025, MaxMem=   104857600 cpu:               0.0 elap:               0.0
 (Enter /usr/local/bin/g16/l9999.exe)
 1\1\GINC-LAPTOP-F8G6GB8F\FTS\RExternal='xtbint'\ZDO\C8H18\TANGKUN\05-D
 ec-2025\0\\#p opt=(calcfc,ts,noeigen,nomicro) external='xtbint'\\test1
 \\0,1\C,-1.289115772,-1.1654611342,0.1458449954\H,-0.8974112094,-2.112
 4349063,-0.219753498\H,-0.7779004271,-0.3589711853,-0.3753337357\H,-2.
 3464302248,-1.116558464,-0.1027073544\C,-1.0761760262,-1.0493141583,1.
 6505022306\H,-0.0043257878,-1.0962474272,1.8589980977\H,-1.4379076249,
 -0.0789784302,1.9979937966\C,-1.7820909469,-2.160181789,2.4288332344\H
 ,-1.4205683318,-2.1469805026,3.4586403727\H,-1.4900969267,-3.121788531
 9,2.0016741682\C,-3.3144933224,-2.0295241627,2.4268478781\H,-3.7573628
 735,-2.8986479618,1.9367039138\H,-3.6089478467,-1.1498294695,1.8512944
 841\C,-3.90980344,-1.9072540717,3.8307015033\H,-4.9960460927,-2.011713
 5184,3.7652866781\H,-3.5352544458,-2.7255643006,4.4478251635\C,-3.5871
 394637,-0.565675692,4.4858315055\H,-2.505509217,-0.4488515384,4.577134
 786\H,-3.9508347265,0.2337937931,3.8348003043\C,-4.2236343098,-0.39911
 05177,5.8662224965\H,-4.097075523,0.6385414072,6.1851295574\H,-5.29649
 13568,-0.5931445005,5.7946538281\C,-3.613429087,-1.3129650096,6.922799
 594\H,-4.0478474131,-1.105357081,7.8982688306\H,-3.7951703716,-2.35854
 05048,6.6883621127\H,-2.5386092028,-1.1556678227,6.9865265663\\Version
 =ES64L-G16RevA.03\HF=-26.3171171\RMSD=0.000e+00\RMSF=2.077e-06\Dipole=
 0.,0.,0.\PG=C01 [X(C8H18)]\\@


 SOME THINGS ARE EASY, THEY ARE ONLY HARD TO DO.
            -- A. EINSTEIN TO J. O. HIRSCHFELDER
 THE ONLY TROUBLE WITH A SURE THING IS THE UNCERTAINTY.
     -- FROM A TEABAG (BELONGING TO W.H.?)
 Job cpu time:       0 days  0 hours  0 minutes  1.8 seconds.
 Elapsed time:       0 days  0 hours  0 minutes 12.6 seconds.
 File lengths (MBytes):  RWF=      6 Int=      0 D2E=      0 Chk=      2 Scr=      1
 Normal termination of Gaussian 16 at Fri Dec  5 13:08:46 2025.
