 Entering Gaussian System, Link 0=g16
 Input=Rh_ts_xtb.gjf
 Output=Rh_ts_xtb.log
 Initial command:
 /usr/local/bin/g16/l1.exe "/usr/local/bin/g16/scratch/Gau-538706.inp" -scrdir="/usr/local/bin/g16/scratch/"
 Entering Link 1 = /usr/local/bin/g16/l1.exe PID=    538708.
  
 Copyright (c) 1988,1990,1992,1993,1995,1998,2003,2009,2016,
            Gaussian, Inc.  All Rights Reserved.
  
 This is part of the Gaussian(R) 16 program.  It is based on
 the Gaussian(R) 09 system (copyright 2009, Gaussian, Inc.),
 the Gaussian(R) 03 system (copyright 2003, Gaussian, Inc.),
 the Gaussian(R) 98 system (copyright 1998, Gaussian, Inc.),
 the Gaussian(R) 94 system (copyright 1995, Gaussian, Inc.),
 the Gaussian 92(TM) system (copyright 1992, Gaussian, Inc.),
 the Gaussian 90(TM) system (copyright 1990, Gaussian, Inc.),
 the Gaussian 88(TM) system (copyright 1988, Gaussian, Inc.),
 the Gaussian 86(TM) system (copyright 1986, Carnegie Mellon
 University), and the Gaussian 82(TM) system (copyright 1983,
 Carnegie Mellon University). Gaussian is a federally registered
 trademark of Gaussian, Inc.
  
 This software contains proprietary and confidential information,
 including trade secrets, belonging to Gaussian, Inc.
  
 This software is provided under written license and may be
 used, copied, transmitted, or stored only in accord with that
 written license.
  
 The following legend is applicable only to US Government
 contracts under FAR:
  
                    RESTRICTED RIGHTS LEGEND
  
 Use, reproduction and disclosure by the US Government is
 subject to restrictions as set forth in subparagraphs (a)
 and (c) of the Commercial Computer Software - Restricted
 Rights clause in FAR 52.227-19.
  
 Gaussian, Inc.
 340 Quinnipiac St., Bldg. 40, Wallingford CT 06492
  
  
 ---------------------------------------------------------------
 Warning -- This program may not be used in any manner that
 competes with the business of Gaussian, Inc. or will provide
 assistance to any competitor of Gaussian, Inc.  The licensee
 of this program is prohibited from giving any competitor of
 Gaussian, Inc. access to this program.  By using this program,
 the user acknowledges that Gaussian, Inc. is engaged in the
 business of creating and licensing software in the field of
 computational chemistry and represents and warrants to the
 licensee that it is not a competitor of Gaussian, Inc. and that
 it will not use this program in any manner prohibited above.
 ---------------------------------------------------------------
  

 Cite this work as:
 Gaussian 16, Revision A.03,
 M. J. Frisch, G. W. Trucks, H. B. Schlegel, G. E. Scuseria, 
 M. A. Robb, J. R. Cheeseman, G. Scalmani, V. Barone, 
 G. A. Petersson, H. Nakatsuji, X. Li, M. Caricato, A. V. Marenich, 
 J. Bloino, B. G. Janesko, R. Gomperts, B. Mennucci, H. P. Hratchian, 
 J. V. Ortiz, A. F. Izmaylov, J. L. Sonnenberg, D. Williams-Young, 
 F. Ding, F. Lipparini, F. Egidi, J. Goings, B. Peng, A. Petrone, 
 T. Henderson, D. Ranasinghe, V. G. Zakrzewski, J. Gao, N. Rega, 
 G. Zheng, W. Liang, M. Hada, M. Ehara, K. Toyota, R. Fukuda, 
 J. Hasegawa, M. Ishida, T. Nakajima, Y. Honda, O. Kitao, H. Nakai, 
 T. Vreven, K. Throssell, J. A. Montgomery, Jr., J. E. Peralta, 
 F. Ogliaro, M. J. Bearpark, J. J. Heyd, E. N. Brothers, K. N. Kudin, 
 V. N. Staroverov, T. A. Keith, R. Kobayashi, J. Normand, 
 K. Raghavachari, A. P. Rendell, J. C. Burant, S. S. Iyengar, 
 J. Tomasi, M. Cossi, J. M. Millam, M. Klene, C. Adamo, R. Cammi, 
 J. W. Ochterski, R. L. Martin, K. Morokuma, O. Farkas, 
 J. B. Foresman, and D. J. Fox, Gaussian, Inc., Wallingford CT, 2016.
 
 ******************************************
 Gaussian 16:  ES64L-G16RevA.03 25-Dec-2016
                 4-Dec-2025 
 ******************************************
 %nprocshared=1
 Will use up to    1 processors via shared memory.
 -----------------------------------------------------
 #p opt(calcfc,noeigen,nomicro,ts) external='./xtb.sh'
 -----------------------------------------------------
 1/5=1,10=4,11=1,18=20,26=1,38=1/1,3;
 2/9=110,12=2,17=6,18=5,40=1/2;
 3/11=9,25=1,30=1,41=9900000,43=2,71=2,140=1/1;
 4/20=17,22=2,24=3,113=1,114=1/2;
 6/7=2,8=2,9=2,10=2/1;
 7/25=1,44=-1/16;
 1/5=1,10=4,11=1,18=20,26=1/3(2);
 2/9=110/2;
 99//99;
 2/9=110/2;
 3/11=9,25=1,30=1,41=9900000,43=2,71=1/1;
 4/16=2,20=17,22=1,24=3,113=1,114=1/2;
 7/44=-1/16;
 1/5=1,11=1,18=20,26=1/3(-4);
 2/9=110/2;
 6/7=2,8=2,9=2,10=2/1;
 99//99;
 Leave Link    1 at Thu Dec  4 19:28:25 2025, MaxMem=           0 cpu:               0.0 elap:               0.0
 (Enter /usr/local/bin/g16/l101.exe)
 ---------
 Rh_ts_xtb
 ---------
 Symbolic Z-matrix:
 Charge =  0 Multiplicity = 1
 Rh                   -0.13464  -0.20189  -0.40595 
 H                    -0.41013  -1.77696  -0.557 
 H                    -0.17873  -0.14158  -1.96737 
 P                     2.10535  -0.72151  -0.3794 
 H                     3.00867   0.24505   0.13733 
 H                     2.49076  -1.81637   0.43019 
 H                     2.8284   -1.05582  -1.55639 
 P                     0.10594   2.10574  -0.15711 
 H                     0.0072    3.02266  -1.24009 
 H                    -0.7898    2.74053   0.73752 
 H                     1.3219    2.58753   0.39503 
 Cl                    0.0003   -0.24202   2.07885 
 C                    -2.02101  -1.39238  -0.37564 
 H                    -2.24739  -1.94348  -1.29221 
 H                    -2.06464  -1.97504   0.54867 
 C                    -2.2911   -0.00584  -0.31268 
 H                    -2.5184    0.43424   0.66118 
 H                    -2.69096   0.50449  -1.19219 
 
 ITRead=  0  0  0  0  0  0  0  0  0  0  0  0  0  0  0  0  0  0
 MicOpt= -1 -1 -1 -1 -1 -1 -1 -1 -1 -1 -1 -1 -1 -1 -1 -1 -1 -1
 NAtoms=     18 NQM=       18 NQMF=       0 NMMI=      0 NMMIF=      0
                NMic=       0 NMicF=      0.
                    Isotopes and Nuclear Properties:
 (Nuclear quadrupole moments (NQMom) in fm**2, nuclear magnetic moments (NMagM)
  in nuclear magnetons)

  Atom         1           2           3           4           5           6           7           8           9          10
 IAtWgt=         103           1           1          31           1           1           1          31           1           1
 AtmWgt= 102.9048000   1.0078250   1.0078250  30.9737634   1.0078250   1.0078250   1.0078250  30.9737634   1.0078250   1.0078250
 NucSpn=           1           1           1           1           1           1           1           1           1           1
 AtZEff=  -0.0000000  -0.0000000  -0.0000000  -0.0000000  -0.0000000  -0.0000000  -0.0000000  -0.0000000  -0.0000000  -0.0000000
 NQMom=    0.0000000   0.0000000   0.0000000   0.0000000   0.0000000   0.0000000   0.0000000   0.0000000   0.0000000   0.0000000
 NMagM=   -0.0884000   2.7928460   2.7928460   1.1316000   2.7928460   2.7928460   2.7928460   1.1316000   2.7928460   2.7928460
 AtZNuc=  45.0000000   1.0000000   1.0000000  15.0000000   1.0000000   1.0000000   1.0000000  15.0000000   1.0000000   1.0000000

  Atom        11          12          13          14          15          16          17          18
 IAtWgt=           1          35          12           1           1          12           1           1
 AtmWgt=   1.0078250  34.9688527  12.0000000   1.0078250   1.0078250  12.0000000   1.0078250   1.0078250
 NucSpn=           1           3           0           1           1           0           1           1
 AtZEff=  -0.0000000  -0.0000000  -0.0000000  -0.0000000  -0.0000000  -0.0000000  -0.0000000  -0.0000000
 NQMom=    0.0000000  -8.1650000   0.0000000   0.0000000   0.0000000   0.0000000   0.0000000   0.0000000
 NMagM=    2.7928460   0.8218740   0.0000000   2.7928460   2.7928460   0.0000000   2.7928460   2.7928460
 AtZNuc=   1.0000000  17.0000000   6.0000000   1.0000000   1.0000000   6.0000000   1.0000000   1.0000000
 Leave Link  101 at Thu Dec  4 19:28:25 2025, MaxMem=   104857600 cpu:               0.1 elap:               0.2
 (Enter /usr/local/bin/g16/l103.exe)

 GradGradGradGradGradGradGradGradGradGradGradGradGradGradGradGradGradGrad
 Berny optimization.
 Initialization pass.
                           ----------------------------
                           !    Initial Parameters    !
                           ! (Angstroms and Degrees)  !
 --------------------------                            --------------------------
 ! Name  Definition              Value          Derivative Info.                !
 --------------------------------------------------------------------------------
 ! R1    R(1,2)                  1.6061         calculate D2E/DX2 analytically  !
 ! R2    R(1,3)                  1.5632         calculate D2E/DX2 analytically  !
 ! R3    R(1,4)                  2.2996         calculate D2E/DX2 analytically  !
 ! R4    R(1,8)                  2.3334         calculate D2E/DX2 analytically  !
 ! R5    R(1,12)                 2.4888         calculate D2E/DX2 analytically  !
 ! R6    R(1,13)                 2.2308         calculate D2E/DX2 analytically  !
 ! R7    R(1,16)                 2.1674         calculate D2E/DX2 analytically  !
 ! R8    R(4,5)                  1.4203         calculate D2E/DX2 analytically  !
 ! R9    R(4,6)                  1.4152         calculate D2E/DX2 analytically  !
 ! R10   R(4,7)                  1.4212         calculate D2E/DX2 analytically  !
 ! R11   R(8,9)                  1.4224         calculate D2E/DX2 analytically  !
 ! R12   R(8,10)                 1.4162         calculate D2E/DX2 analytically  !
 ! R13   R(8,11)                 1.4197         calculate D2E/DX2 analytically  !
 ! R14   R(13,14)                1.0932         calculate D2E/DX2 analytically  !
 ! R15   R(13,15)                1.0935         calculate D2E/DX2 analytically  !
 ! R16   R(13,16)                1.414          calculate D2E/DX2 analytically  !
 ! R17   R(16,17)                1.0926         calculate D2E/DX2 analytically  !
 ! R18   R(16,18)                1.0926         calculate D2E/DX2 analytically  !
 ! A1    A(2,1,3)               86.5061         calculate D2E/DX2 analytically  !
 ! A2    A(2,1,4)               86.9371         calculate D2E/DX2 analytically  !
 ! A3    A(2,1,12)              95.013          calculate D2E/DX2 analytically  !
 ! A4    A(2,1,13)              48.1558         calculate D2E/DX2 analytically  !
 ! A5    A(2,1,16)              85.5316         calculate D2E/DX2 analytically  !
 ! A6    A(3,1,4)               92.7355         calculate D2E/DX2 analytically  !
 ! A7    A(3,1,8)               94.0872         calculate D2E/DX2 analytically  !
 ! A8    A(3,1,13)              90.5905         calculate D2E/DX2 analytically  !
 ! A9    A(3,1,16)              90.6551         calculate D2E/DX2 analytically  !
 ! A10   A(4,1,8)               96.9961         calculate D2E/DX2 analytically  !
 ! A11   A(4,1,12)              86.1018         calculate D2E/DX2 analytically  !
 ! A12   A(4,1,13)             134.662          calculate D2E/DX2 analytically  !
 ! A13   A(8,1,12)              84.4846         calculate D2E/DX2 analytically  !
 ! A14   A(8,1,13)             127.842          calculate D2E/DX2 analytically  !
 ! A15   A(8,1,16)              90.4894         calculate D2E/DX2 analytically  !
 ! A16   A(12,1,13)             91.3568         calculate D2E/DX2 analytically  !
 ! A17   A(12,1,16)             90.7126         calculate D2E/DX2 analytically  !
 ! A18   A(1,4,5)              118.0304         calculate D2E/DX2 analytically  !
 ! A19   A(1,4,6)              116.5323         calculate D2E/DX2 analytically  !
 ! A20   A(1,4,7)              122.6255         calculate D2E/DX2 analytically  !
 ! A21   A(5,4,6)               98.3469         calculate D2E/DX2 analytically  !
 ! A22   A(5,4,7)               97.9211         calculate D2E/DX2 analytically  !
 ! A23   A(6,4,7)               98.8143         calculate D2E/DX2 analytically  !
 ! A24   A(1,8,9)              123.3075         calculate D2E/DX2 analytically  !
 ! A25   A(1,8,10)             116.4504         calculate D2E/DX2 analytically  !
 ! A26   A(1,8,11)             117.7354         calculate D2E/DX2 analytically  !
 ! A27   A(9,8,10)              98.5171         calculate D2E/DX2 analytically  !
 ! A28   A(9,8,11)              97.8628         calculate D2E/DX2 analytically  !
 ! A29   A(10,8,11)             98.2756         calculate D2E/DX2 analytically  !
 ! A30   A(1,13,14)            115.6419         calculate D2E/DX2 analytically  !
 ! A31   A(1,13,15)            109.2427         calculate D2E/DX2 analytically  !
 ! A32   A(14,13,15)           115.584          calculate D2E/DX2 analytically  !
 ! A33   A(14,13,16)           119.4797         calculate D2E/DX2 analytically  !
 ! A34   A(15,13,16)           118.5044         calculate D2E/DX2 analytically  !
 ! A35   A(1,16,17)            106.3669         calculate D2E/DX2 analytically  !
 ! A36   A(1,16,18)            111.822          calculate D2E/DX2 analytically  !
 ! A37   A(13,16,17)           118.3201         calculate D2E/DX2 analytically  !
 ! A38   A(13,16,18)           119.4751         calculate D2E/DX2 analytically  !
 ! A39   A(17,16,18)           116.9498         calculate D2E/DX2 analytically  !
 ! A40   L(2,1,8,3,-1)         180.5933         calculate D2E/DX2 analytically  !
 ! A41   L(3,1,12,2,-1)        181.519          calculate D2E/DX2 analytically  !
 ! A42   L(4,1,16,2,-1)        172.4687         calculate D2E/DX2 analytically  !
 ! A43   L(2,1,8,3,-2)         176.0204         calculate D2E/DX2 analytically  !
 ! A44   L(3,1,12,2,-2)        178.7435         calculate D2E/DX2 analytically  !
 ! A45   L(4,1,16,2,-2)        176.1364         calculate D2E/DX2 analytically  !
 ! D1    D(2,1,4,5)           -161.4835         calculate D2E/DX2 analytically  !
 ! D2    D(2,1,4,6)            -44.7636         calculate D2E/DX2 analytically  !
 ! D3    D(2,1,4,7)             76.7685         calculate D2E/DX2 analytically  !
 ! D4    D(3,1,4,5)            112.1662         calculate D2E/DX2 analytically  !
 ! D5    D(3,1,4,6)           -131.1138         calculate D2E/DX2 analytically  !
 ! D6    D(3,1,4,7)             -9.5818         calculate D2E/DX2 analytically  !
 ! D7    D(8,1,4,5)             17.7066         calculate D2E/DX2 analytically  !
 ! D8    D(8,1,4,6)            134.4266         calculate D2E/DX2 analytically  !
 ! D9    D(8,1,4,7)           -104.0413         calculate D2E/DX2 analytically  !
 ! D10   D(12,1,4,5)           -66.2419         calculate D2E/DX2 analytically  !
 ! D11   D(12,1,4,6)            50.478          calculate D2E/DX2 analytically  !
 ! D12   D(12,1,4,7)           172.0101         calculate D2E/DX2 analytically  !
 ! D13   D(13,1,4,5)          -154.2949         calculate D2E/DX2 analytically  !
 ! D14   D(13,1,4,6)           -37.5749         calculate D2E/DX2 analytically  !
 ! D15   D(13,1,4,7)            83.9571         calculate D2E/DX2 analytically  !
 ! D16   D(5,4,16,17)          -42.0396         calculate D2E/DX2 analytically  !
 ! D17   D(5,4,16,18)           89.2784         calculate D2E/DX2 analytically  !
 ! D18   D(6,4,16,17)           73.5572         calculate D2E/DX2 analytically  !
 ! D19   D(6,4,16,18)         -155.1248         calculate D2E/DX2 analytically  !
 ! D20   D(7,4,16,17)         -168.0809         calculate D2E/DX2 analytically  !
 ! D21   D(7,4,16,18)          -36.7629         calculate D2E/DX2 analytically  !
 ! D22   D(3,1,8,9)              7.5162         calculate D2E/DX2 analytically  !
 ! D23   D(3,1,8,10)           129.1727         calculate D2E/DX2 analytically  !
 ! D24   D(3,1,8,11)          -114.5179         calculate D2E/DX2 analytically  !
 ! D25   D(4,1,8,9)            100.7824         calculate D2E/DX2 analytically  !
 ! D26   D(4,1,8,10)          -137.5611         calculate D2E/DX2 analytically  !
 ! D27   D(4,1,8,11)           -21.2517         calculate D2E/DX2 analytically  !
 ! D28   D(12,1,8,9)          -173.8442         calculate D2E/DX2 analytically  !
 ! D29   D(12,1,8,10)          -52.1877         calculate D2E/DX2 analytically  !
 ! D30   D(12,1,8,11)           64.1217         calculate D2E/DX2 analytically  !
 ! D31   D(13,1,8,9)           -86.4171         calculate D2E/DX2 analytically  !
 ! D32   D(13,1,8,10)           35.2394         calculate D2E/DX2 analytically  !
 ! D33   D(13,1,8,11)          151.5488         calculate D2E/DX2 analytically  !
 ! D34   D(16,1,8,9)           -83.1755         calculate D2E/DX2 analytically  !
 ! D35   D(16,1,8,10)           38.481          calculate D2E/DX2 analytically  !
 ! D36   D(16,1,8,11)          154.7904         calculate D2E/DX2 analytically  !
 ! D37   D(2,1,13,14)          -61.5378         calculate D2E/DX2 analytically  !
 ! D38   D(2,1,13,15)           70.9098         calculate D2E/DX2 analytically  !
 ! D39   D(3,1,13,14)           23.2387         calculate D2E/DX2 analytically  !
 ! D40   D(3,1,13,15)          155.6863         calculate D2E/DX2 analytically  !
 ! D41   D(4,1,13,14)          -71.194          calculate D2E/DX2 analytically  !
 ! D42   D(4,1,13,15)           61.2535         calculate D2E/DX2 analytically  !
 ! D43   D(8,1,13,14)          118.8781         calculate D2E/DX2 analytically  !
 ! D44   D(8,1,13,15)         -108.6743         calculate D2E/DX2 analytically  !
 ! D45   D(12,1,13,14)        -157.0535         calculate D2E/DX2 analytically  !
 ! D46   D(12,1,13,15)         -24.606          calculate D2E/DX2 analytically  !
 ! D47   D(2,1,16,17)          119.0928         calculate D2E/DX2 analytically  !
 ! D48   D(2,1,16,18)         -112.1216         calculate D2E/DX2 analytically  !
 ! D49   D(3,1,16,17)         -154.4633         calculate D2E/DX2 analytically  !
 ! D50   D(3,1,16,18)          -25.6777         calculate D2E/DX2 analytically  !
 ! D51   D(8,1,16,17)          -60.37           calculate D2E/DX2 analytically  !
 ! D52   D(8,1,16,18)           68.4156         calculate D2E/DX2 analytically  !
 ! D53   D(12,1,16,17)          24.12           calculate D2E/DX2 analytically  !
 ! D54   D(12,1,16,18)         152.9057         calculate D2E/DX2 analytically  !
 ! D55   D(14,13,16,17)        151.5588         calculate D2E/DX2 analytically  !
 ! D56   D(14,13,16,18)         -2.0727         calculate D2E/DX2 analytically  !
 ! D57   D(15,13,16,17)          0.9281         calculate D2E/DX2 analytically  !
 ! D58   D(15,13,16,18)       -152.7033         calculate D2E/DX2 analytically  !
 --------------------------------------------------------------------------------
 Trust Radius=3.00D-01 FncErr=1.00D-07 GrdErr=1.00D-07 EigMax=2.50D+02 EigMin=1.00D-04
 Number of steps in this run=    108 maximum allowed number of steps=    108.
 Search for a saddle point of order  1.
 GradGradGradGradGradGradGradGradGradGradGradGradGradGradGradGradGradGrad

 Leave Link  103 at Thu Dec  4 19:28:25 2025, MaxMem=   104857600 cpu:               0.0 elap:               0.1
 (Enter /usr/local/bin/g16/l202.exe)
                          Input orientation:                          
 ---------------------------------------------------------------------
 Center     Atomic      Atomic             Coordinates (Angstroms)
 Number     Number       Type             X           Y           Z
 ---------------------------------------------------------------------
      1         45           0       -0.134640   -0.201887   -0.405949
      2          1           0       -0.410126   -1.776956   -0.556997
      3          1           0       -0.178732   -0.141579   -1.967370
      4         15           0        2.105355   -0.721514   -0.379396
      5          1           0        3.008668    0.245047    0.137329
      6          1           0        2.490760   -1.816374    0.430187
      7          1           0        2.828400   -1.055822   -1.556390
      8         15           0        0.105944    2.105738   -0.157107
      9          1           0        0.007195    3.022664   -1.240085
     10          1           0       -0.789802    2.740527    0.737521
     11          1           0        1.321899    2.587526    0.395030
     12         17           0        0.000298   -0.242021    2.078852
     13          6           0       -2.021010   -1.392378   -0.375644
     14          1           0       -2.247390   -1.943480   -1.292213
     15          1           0       -2.064636   -1.975037    0.548668
     16          6           0       -2.291096   -0.005842   -0.312675
     17          1           0       -2.518396    0.434237    0.661179
     18          1           0       -2.690960    0.504493   -1.192192
 ---------------------------------------------------------------------
                    Distance matrix (angstroms):
                    1          2          3          4          5
     1  Rh   0.000000
     2  H    1.606098   0.000000
     3  H    1.563207   2.171901   0.000000
     4  P    2.299629   2.733705   2.841661   0.000000
     5  H    3.221069   4.032212   3.839109   1.420288   0.000000
     6  H    3.193496   3.064511   3.959723   1.415161   2.145565
     7  H    3.291250   3.465093   3.169793   1.421222   2.143231
     8  P    2.333439   3.937201   2.899746   3.469929   3.460444
     9  H    3.333711   4.865914   3.252068   4.377434   4.315236
    10  H    3.224060   4.714614   3.999547   4.649211   4.584324
    11  H    3.247137   4.791134   3.909072   3.487590   2.898070
    12  Cl   2.488786   3.077690   4.051426   3.271722   3.613452
    13  C    2.230825   1.666054   2.737166   4.180546   5.314317
    14  H    2.877902   1.985903   2.825249   4.612247   5.870212
    15  H    2.789308   1.999784   3.639869   4.452128   5.553052
    16  C    2.167357   2.595108   2.686731   4.454820   5.324749
    17  H    2.688068   3.289093   3.565790   4.878281   5.555056
    18  H    2.766211   3.287961   2.707323   5.016809   5.858387
                    6          7          8          9         10
     6  H    0.000000
     7  H    2.153817   0.000000
     8  P    4.627659   4.400593   0.000000
     9  H    5.689832   4.969235   1.422444   0.000000
    10  H    5.623334   5.724131   1.416219   2.150751   0.000000
    11  H    4.556513   4.399042   1.419691   2.142754   2.144759
    12  Cl   3.376253   4.677116   3.243863   4.655487   3.364375
    13  C    4.602739   5.002420   4.099818   4.934923   4.453753
    14  H    5.043103   5.159590   4.819005   5.454215   5.308889
    15  H    4.559698   5.405370   4.675710   5.698170   4.888498
    16  C    5.166819   5.372013   3.198245   3.913321   3.301415
    17  H    5.496385   5.977133   3.217245   4.085752   2.883199
    18  H    5.904978   5.747222   3.384975   3.691005   3.512555
                   11         12         13         14         15
    11  H    0.000000
    12  Cl   3.547988   0.000000
    13  C    5.254390   3.381354   0.000000
    14  H    6.009711   4.394445   1.093188   0.000000
    15  H    5.684119   3.099800   1.093502   1.850199   0.000000
    16  C    4.503347   3.320492   1.413999   2.171600   2.161232
    17  H    4.410822   2.968323   2.158452   3.089130   2.454212
    18  H    4.791799   4.301149   2.171106   2.489845   3.093694
                   16         17         18
    16  C    0.000000
    17  H    1.092578   0.000000
    18  H    1.092650   1.862713   0.000000
 Stoichiometry    C2H12ClP2Rh
 Framework group  C1[X(C2H12ClP2Rh)]
 Deg. of freedom    48
 Full point group                 C1      NOp   1
 Largest Abelian subgroup         C1      NOp   1
 Largest concise Abelian subgroup C1      NOp   1
                         Standard orientation:                         
 ---------------------------------------------------------------------
 Center     Atomic      Atomic             Coordinates (Angstroms)
 Number     Number       Type             X           Y           Z
 ---------------------------------------------------------------------
      1         45           0       -0.134640   -0.201887   -0.405949
      2          1           0       -0.410126   -1.776956   -0.556997
      3          1           0       -0.178732   -0.141579   -1.967370
      4         15           0        2.105355   -0.721515   -0.379396
      5          1           0        3.008668    0.245046    0.137329
      6          1           0        2.490760   -1.816375    0.430187
      7          1           0        2.828400   -1.055823   -1.556390
      8         15           0        0.105945    2.105738   -0.157107
      9          1           0        0.007196    3.022664   -1.240085
     10          1           0       -0.789801    2.740527    0.737521
     11          1           0        1.321900    2.587526    0.395030
     12         17           0        0.000298   -0.242021    2.078852
     13          6           0       -2.021010   -1.392378   -0.375644
     14          1           0       -2.247390   -1.943480   -1.292213
     15          1           0       -2.064636   -1.975037    0.548668
     16          6           0       -2.291096   -0.005842   -0.312675
     17          1           0       -2.518396    0.434237    0.661179
     18          1           0       -2.690960    0.504493   -1.192192
 ---------------------------------------------------------------------
 Rotational constants (GHZ):           1.2283021           1.0320732           0.9661071
 Leave Link  202 at Thu Dec  4 19:28:26 2025, MaxMem=   104857600 cpu:               0.0 elap:               0.0
 (Enter /usr/local/bin/g16/l301.exe)
 Standard basis: STO-3G (5D, 7F)
 Ernie: Thresh=  0.10000D-02 Tol=  0.10000D-05 Strict=F.
 There are    78 symmetry adapted cartesian basis functions of A   symmetry.
 There are    76 symmetry adapted basis functions of A   symmetry.
    76 basis functions,   234 primitive gaussians,    78 cartesian basis functions
    58 alpha electrons       58 beta electrons
       nuclear repulsion energy      1061.6652853208 Hartrees.



 Warning!  P  atom    4 may be hypervalent but has no d functions.
 Warning!  P  atom    8 may be hypervalent but has no d functions.



 IExCor=    0 DFT=F Ex=HF Corr=None ExCW=0 ScaHFX=  1.000000
 ScaDFX=  1.000000  1.000000  1.000000  1.000000 ScalE2=  1.000000  1.000000
 IRadAn=      5 IRanWt=     -1 IRanGd=            0 ICorTp=0 IEmpDi=  4
 NAtoms=   18 NActive=   18 NUniq=   18 SFac= 1.00D+00 NAtFMM=   60 NAOKFM=F Big=F
 Integral buffers will be    131072 words long.
 Raffenetti 1 integral format.
 Two-electron integral symmetry is turned on.
 Leave Link  301 at Thu Dec  4 19:28:26 2025, MaxMem=   104857600 cpu:               0.0 elap:               0.0
 (Enter /usr/local/bin/g16/l402.exe)
 External calculation of energy, first and second derivatives.
 Running external command "./xtb.sh R"
         input file       "/usr/local/bin/g16/scratch/Gau-538708.EIn"
         output file      "/usr/local/bin/g16/scratch/Gau-538708.EOu"
         message file     "/usr/local/bin/g16/scratch/Gau-538708.EMs"
         fchk file        "/usr/local/bin/g16/scratch/Gau-538708.EFC"
         mat. el file     "/usr/local/bin/g16/scratch/Gau-538708.EUF"
Using prefix: Gau-538708
Generating Gau-538708_mol.tmp
Generating Gau-538708_mol.xyz via genxyz
Running: xtb mol.xyz --chrg 0 --uhf 0 --hess --grad --gfn 2 > xtbout
xtb running finished!
Warning: XTB may not have terminated normally, check Gau-538708_xtbout
Extracting data from xtb outputs via extderi
 Recovered energy= -24.0769828716     dipole=      0.000000000000      0.000000000000      0.000000000000
 Energy=    -24.0769829     NIter=   0.
 Dipole moment=       0.000000       0.000000       0.000000
 Leave Link  402 at Thu Dec  4 19:28:28 2025, MaxMem=   104857600 cpu:               0.0 elap:               2.2
 (Enter /usr/local/bin/g16/l601.exe)
 Leave Link  601 at Thu Dec  4 19:28:28 2025, MaxMem=   104857600 cpu:               0.0 elap:               0.0
 (Enter /usr/local/bin/g16/l716.exe)
 Dipole        = 0.00000000D+00 0.00000000D+00 0.00000000D+00
 ***** Axes restored to original set *****
 -------------------------------------------------------------------
 Center     Atomic                   Forces (Hartrees/Bohr)
 Number     Number              X              Y              Z
 -------------------------------------------------------------------
      1       45           0.006108069   -0.011460275   -0.013952772
      2        1           0.011867490    0.020357911    0.002979998
      3        1           0.000752825    0.000775470    0.011109684
      4       15          -0.004579394    0.001681414    0.003097197
      5        1          -0.004136285   -0.011481994   -0.004518660
      6        1           0.001483737    0.011082829   -0.007846914
      7        1          -0.003050993    0.002276003    0.013329267
      8       15          -0.001931497   -0.007307694    0.001958989
      9        1           0.001573378   -0.004866758    0.013120388
     10        1           0.010959947   -0.001408402   -0.008593448
     11        1          -0.012729738   -0.000399389   -0.004672948
     12       17           0.001432415    0.001007761   -0.010228619
     13        6          -0.002997317   -0.000577856    0.002243313
     14        1          -0.003890667    0.002909624    0.005096095
     15        1          -0.005632558    0.002630902   -0.003913922
     16        6           0.009146484   -0.000159497    0.000542512
     17        1          -0.003120694   -0.002317323   -0.004828017
     18        1          -0.001255200   -0.002742724    0.005077858
 -------------------------------------------------------------------
 Cartesian Forces:  Max     0.020357911 RMS     0.007012857
 FormGI is forming the generalized inverse of G from B-inverse, IUseBI=4.
 Leave Link  716 at Thu Dec  4 19:28:28 2025, MaxMem=   104857600 cpu:               0.0 elap:               0.0
 (Enter /usr/local/bin/g16/l103.exe)

 GradGradGradGradGradGradGradGradGradGradGradGradGradGradGradGradGradGrad
 Berny optimization.
 Red2BG is reusing G-inverse.
 Internal  Forces:  Max     0.022280438 RMS     0.005013989
 Search for a saddle point.
 Step number   1 out of a maximum of  108
 All quantities printed in internal units (Hartrees-Bohrs-Radians)
 Swapping is turned off.
 Second derivative matrix not updated -- analytic derivatives used.
 ITU=  0
     Eigenvalues ---   -0.03449  -0.00025  -0.00003   0.00082   0.00193
     Eigenvalues ---    0.00385   0.01056   0.01107   0.01328   0.01364
     Eigenvalues ---    0.01484   0.01514   0.01771   0.02015   0.02270
     Eigenvalues ---    0.02414   0.02462   0.03260   0.03362   0.03706
     Eigenvalues ---    0.03951   0.05071   0.05217   0.06367   0.06964
     Eigenvalues ---    0.07366   0.07446   0.07665   0.07831   0.08223
     Eigenvalues ---    0.08519   0.09267   0.09829   0.10403   0.10626
     Eigenvalues ---    0.10970   0.14471   0.16138   0.16255   0.16328
     Eigenvalues ---    0.16473   0.16852   0.17000   0.30176   0.30463
     Eigenvalues ---    0.30730   0.31601   0.37261
 Eigenvectors required to have negative eigenvalues:
                          A4        A5        A12       A43       A42
   1                   -0.47729  -0.44053  -0.26620  -0.24857  -0.22986
                          A14       A2        R7        A15       D55
   1                    0.22939   0.21067  -0.20321   0.19221  -0.16604
 Eigenvalue     2 is  -2.54D-04 should be greater than     0.000000 Eigenvector:
                          D33       D27       D31       D25       D24
   1                    0.24683   0.24558   0.23599   0.23475   0.19633
                          D32       D26       D7        D22       D13
   1                    0.19607   0.19482   0.18757   0.18550   0.18398
 Eigenvalue     3 is  -2.52D-05 should be greater than     0.000000 Eigenvector:
                          D13       D15       D14       D16       D10
   1                    0.21656   0.21215   0.19809   0.19428   0.19052
                          D17       D12       D4        D6        D20
   1                    0.18973   0.18610   0.18140   0.17698   0.17681
 RFO step:  Lambda0=3.364370706D-03 Lambda=-2.18719812D-02.
 Linear search not attempted -- option 19 set.
 Maximum step size (   0.300) exceeded in Quadratic search.
    -- Step size scaled by   0.570
 Iteration  1 RMS(Cart)=  0.07008755 RMS(Int)=  0.00261763
 Iteration  2 RMS(Cart)=  0.00264079 RMS(Int)=  0.00059947
 Iteration  3 RMS(Cart)=  0.00000359 RMS(Int)=  0.00059946
 Iteration  4 RMS(Cart)=  0.00000000 RMS(Int)=  0.00059946
 ITry= 1 IFail=0 DXMaxC= 3.76D-01 DCOld= 1.00D+10 DXMaxT= 3.00D-01 DXLimC= 3.00D+00 Rises=F
 Variable       Old X    -DE/DX   Delta X   Delta X   Delta X     New X
                                 (Linear)    (Quad)   (Total)
    R1        3.03509  -0.02228   0.00000  -0.07927  -0.07927   2.95582
    R2        2.95403  -0.01109   0.00000  -0.04672  -0.04672   2.90732
    R3        4.34567  -0.01076   0.00000  -0.03899  -0.03900   4.30667
    R4        4.40956  -0.01385   0.00000  -0.09981  -0.09981   4.30975
    R5        4.70312  -0.01015   0.00000  -0.06977  -0.06977   4.63336
    R6        4.21565   0.00979   0.00000   0.02853   0.02822   4.24387
    R7        4.09571  -0.00179   0.00000  -0.05223  -0.05192   4.04379
    R8        2.68396  -0.01209   0.00000  -0.03535  -0.03535   2.64861
    R9        2.67427  -0.01266   0.00000  -0.03314  -0.03314   2.64113
   R10        2.68572  -0.01313   0.00000  -0.03969  -0.03969   2.64602
   R11        2.68803  -0.01324   0.00000  -0.03339  -0.03339   2.65464
   R12        2.67627  -0.01299   0.00000  -0.04057  -0.04057   2.63570
   R13        2.68283  -0.01286   0.00000  -0.04053  -0.04053   2.64230
   R14        2.06583  -0.00493   0.00000  -0.00715  -0.00715   2.05868
   R15        2.06642  -0.00449   0.00000  -0.00618  -0.00618   2.06024
   R16        2.67207  -0.00807   0.00000   0.01379   0.01384   2.68591
   R17        2.06467  -0.00459   0.00000  -0.00637  -0.00637   2.05830
   R18        2.06481  -0.00491   0.00000  -0.00692  -0.00692   2.05789
    A1        1.50982   0.00060   0.00000   0.02093   0.02060   1.53042
    A2        1.51734  -0.00393   0.00000   0.02984   0.02999   1.54733
    A3        1.65829   0.00020   0.00000   0.03518   0.03517   1.69346
    A4        0.84048   0.00938   0.00000  -0.06214  -0.06195   0.77853
    A5        1.49281   0.00659   0.00000  -0.05728  -0.05730   1.43551
    A6        1.61854   0.00101   0.00000  -0.00158  -0.00156   1.61698
    A7        1.64213   0.00083   0.00000   0.04565   0.04517   1.68731
    A8        1.58110   0.00034   0.00000   0.00219   0.00200   1.58310
    A9        1.58223   0.00021   0.00000  -0.00812  -0.00812   1.57411
   A10        1.69290  -0.00081   0.00000  -0.00393  -0.00394   1.68896
   A11        1.50276  -0.00207   0.00000   0.01758   0.01756   1.52032
   A12        2.35029   0.00535   0.00000  -0.03003  -0.02981   2.32049
   A13        1.47453  -0.00165   0.00000  -0.10185  -0.10146   1.37307
   A14        2.23126  -0.00483   0.00000   0.02801   0.02669   2.25795
   A15        1.57934  -0.00196   0.00000   0.02686   0.02719   1.60652
   A16        1.59448   0.00106   0.00000   0.02551   0.02726   1.62174
   A17        1.58323   0.00092   0.00000   0.00035   0.00184   1.58508
   A18        2.06002   0.00492   0.00000   0.02219   0.02200   2.08202
   A19        2.03387   0.00539   0.00000   0.03654   0.03613   2.07000
   A20        2.14022   0.00406   0.00000   0.01325   0.01330   2.15352
   A21        1.71648  -0.00632   0.00000  -0.03187  -0.03238   1.68409
   A22        1.70905  -0.00592   0.00000  -0.02835  -0.02826   1.68078
   A23        1.72463  -0.00626   0.00000  -0.03207  -0.03212   1.69251
   A24        2.15212   0.00488   0.00000   0.05477   0.05447   2.20659
   A25        2.03244   0.00554   0.00000   0.00676   0.00636   2.03881
   A26        2.05487   0.00388   0.00000  -0.01094  -0.01089   2.04398
   A27        1.71945  -0.00667   0.00000  -0.02468  -0.02521   1.69423
   A28        1.70803  -0.00579   0.00000  -0.02191  -0.02183   1.68620
   A29        1.71523  -0.00602   0.00000  -0.02130  -0.02131   1.69393
   A30        2.01833   0.00234   0.00000   0.03599   0.03508   2.05341
   A31        1.90664   0.00389   0.00000   0.04906   0.04807   1.95471
   A32        2.01732  -0.00243   0.00000  -0.01711  -0.01973   1.99760
   A33        2.08531   0.00067   0.00000  -0.00812  -0.00761   2.07770
   A34        2.06829  -0.00002   0.00000  -0.00776  -0.00739   2.06091
   A35        1.85645   0.00115   0.00000   0.03485   0.03492   1.89138
   A36        1.95166  -0.00064   0.00000   0.01972   0.01983   1.97149
   A37        2.06508  -0.00076   0.00000  -0.00661  -0.00733   2.05774
   A38        2.08523  -0.00172   0.00000  -0.01016  -0.01129   2.07394
   A39        2.04116  -0.00031   0.00000  -0.01998  -0.02149   2.01967
   A40        3.15195   0.00142   0.00000   0.06658   0.06578   3.21772
   A41        3.16811   0.00080   0.00000   0.05611   0.05577   3.22387
   A42        3.01015   0.00267   0.00000  -0.02744  -0.02731   2.98284
   A43        3.07214   0.00466   0.00000  -0.02965  -0.02972   3.04242
   A44        3.11966  -0.00123   0.00000   0.01363   0.01534   3.13501
   A45        3.07416  -0.00098   0.00000   0.01092   0.01140   3.08556
    D1       -2.81842   0.00004   0.00000  -0.02985  -0.03018  -2.84860
    D2       -0.78127  -0.00020   0.00000  -0.02523  -0.02582  -0.80709
    D3        1.33986  -0.00016   0.00000  -0.02298  -0.02345   1.31641
    D4        1.95767  -0.00030   0.00000  -0.05246  -0.05237   1.90530
    D5       -2.28837  -0.00054   0.00000  -0.04784  -0.04800  -2.33637
    D6       -0.16723  -0.00050   0.00000  -0.04559  -0.04563  -0.21286
    D7        0.30904  -0.00122   0.00000  -0.09810  -0.09752   0.21152
    D8        2.34619  -0.00146   0.00000  -0.09349  -0.09315   2.25303
    D9       -1.81586  -0.00141   0.00000  -0.09123  -0.09078  -1.90664
   D10       -1.15614   0.00066   0.00000   0.00223   0.00238  -1.15376
   D11        0.88101   0.00042   0.00000   0.00685   0.00674   0.88775
   D12        3.00214   0.00046   0.00000   0.00910   0.00911   3.01126
   D13       -2.69295   0.00176   0.00000  -0.05421  -0.05423  -2.74718
   D14       -0.65581   0.00152   0.00000  -0.04960  -0.04987  -0.70567
   D15        1.46533   0.00156   0.00000  -0.04734  -0.04749   1.41783
   D16       -0.73373   0.00059   0.00000  -0.05310  -0.05383  -0.78756
   D17        1.55820  -0.00035   0.00000  -0.02475  -0.02486   1.53334
   D18        1.28382  -0.00040   0.00000  -0.04172  -0.04145   1.24236
   D19       -2.70744  -0.00134   0.00000  -0.01337  -0.01248  -2.71992
   D20       -2.93356   0.00030   0.00000  -0.05558  -0.05575  -2.98932
   D21       -0.64163  -0.00065   0.00000  -0.02723  -0.02678  -0.66841
   D22        0.13118   0.00008   0.00000  -0.07622  -0.07570   0.05549
   D23        2.25449   0.00052   0.00000  -0.05306  -0.05240   2.20209
   D24       -1.99871  -0.00009   0.00000  -0.08601  -0.08541  -2.08412
   D25        1.75899   0.00114   0.00000  -0.07232  -0.07196   1.68703
   D26       -2.40089   0.00158   0.00000  -0.04916  -0.04866  -2.44956
   D27       -0.37091   0.00097   0.00000  -0.08212  -0.08167  -0.45258
   D28       -3.03415  -0.00109   0.00000  -0.06743  -0.06689  -3.10104
   D29       -0.91085  -0.00065   0.00000  -0.04427  -0.04359  -0.95444
   D30        1.11913  -0.00126   0.00000  -0.07723  -0.07660   1.04253
   D31       -1.50826  -0.00040   0.00000  -0.11828  -0.11935  -1.62761
   D32        0.61504   0.00005   0.00000  -0.09512  -0.09605   0.51899
   D33        2.64503  -0.00057   0.00000  -0.12808  -0.12906   2.51596
   D34       -1.45169   0.00000   0.00000  -0.07043  -0.07115  -1.52283
   D35        0.67162   0.00045   0.00000  -0.04726  -0.04785   0.62377
   D36        2.70160  -0.00017   0.00000  -0.08022  -0.08086   2.62074
   D37       -1.07404  -0.00201   0.00000  -0.03202  -0.03333  -1.10736
   D38        1.23761   0.00041   0.00000   0.02382   0.02341   1.26102
   D39        0.40559  -0.00065   0.00000  -0.01156  -0.01218   0.39341
   D40        2.71724   0.00177   0.00000   0.04428   0.04456   2.76179
   D41       -1.24257  -0.00287   0.00000  -0.00889  -0.00944  -1.25201
   D42        1.06908  -0.00045   0.00000   0.04694   0.04731   1.11638
   D43        2.07482   0.00025   0.00000   0.05054   0.05057   2.12539
   D44       -1.89672   0.00266   0.00000   0.10638   0.10731  -1.78941
   D45       -2.74110  -0.00074   0.00000  -0.06029  -0.06014  -2.80124
   D46       -0.42946   0.00167   0.00000  -0.00446  -0.00340  -0.43285
   D47        2.07856  -0.00039   0.00000  -0.01503  -0.01490   2.06367
   D48       -1.95689  -0.00037   0.00000  -0.00077  -0.00093  -1.95782
   D49       -2.69589   0.00030   0.00000   0.00568   0.00597  -2.68993
   D50       -0.44816   0.00032   0.00000   0.01994   0.01993  -0.42823
   D51       -1.05366   0.00110   0.00000   0.05159   0.05123  -1.00242
   D52        1.19408   0.00113   0.00000   0.06584   0.06520   1.25927
   D53        0.42097  -0.00056   0.00000  -0.04996  -0.04995   0.37102
   D54        2.66871  -0.00054   0.00000  -0.03570  -0.03599   2.63272
   D55        2.64520  -0.00555   0.00000  -0.08399  -0.08309   2.56211
   D56       -0.03618   0.00109   0.00000   0.00784   0.00787  -0.02831
   D57        0.01620  -0.00108   0.00000  -0.00927  -0.00931   0.00689
   D58       -2.66518   0.00556   0.00000   0.08255   0.08165  -2.58352
         Item               Value     Threshold  Converged?
 Maximum Force            0.022280     0.000450     NO 
 RMS     Force            0.005014     0.000300     NO 
 Maximum Displacement     0.375925     0.001800     NO 
 RMS     Displacement     0.070106     0.001200     NO 
 Predicted change in Energy=-8.402884D-03
 GradGradGradGradGradGradGradGradGradGradGradGradGradGradGradGradGradGrad

 Leave Link  103 at Thu Dec  4 19:28:28 2025, MaxMem=   104857600 cpu:               0.0 elap:               0.2
 (Enter /usr/local/bin/g16/l202.exe)
                          Input orientation:                          
 ---------------------------------------------------------------------
 Center     Atomic      Atomic             Coordinates (Angstroms)
 Number     Number       Type             X           Y           Z
 ---------------------------------------------------------------------
      1         45           0       -0.133467   -0.179828   -0.430249
      2          1           0       -0.457943   -1.707427   -0.518141
      3          1           0       -0.185794   -0.143859   -1.967423
      4         15           0        2.083754   -0.706541   -0.412738
      5          1           0        3.013205    0.253152    0.010994
      6          1           0        2.521065   -1.732659    0.429397
      7          1           0        2.788836   -1.110372   -1.553082
      8         15           0        0.121093    2.065349   -0.121040
      9          1           0        0.128023    3.049911   -1.123031
     10          1           0       -0.791471    2.690985    0.728159
     11          1           0        1.282340    2.491144    0.531102
     12         17           0        0.006881   -0.043090    2.013777
     13          6           0       -2.002338   -1.423564   -0.368068
     14          1           0       -2.258056   -1.996746   -1.258503
     15          1           0       -2.093462   -1.977245    0.566670
     16          6           0       -2.266266   -0.027122   -0.346974
     17          1           0       -2.541071    0.425311    0.604947
     18          1           0       -2.693595    0.439944   -1.233049
 ---------------------------------------------------------------------
                    Distance matrix (angstroms):
                    1          2          3          4          5
     1  Rh   0.000000
     2  H    1.564151   0.000000
     3  H    1.538485   2.149238   0.000000
     4  P    2.278991   2.733697   2.807936   0.000000
     5  H    3.206822   4.021532   3.782241   1.401585   0.000000
     6  H    3.193245   3.126172   3.949192   1.397623   2.088232
     7  H    3.265964   3.459646   3.155036   1.400216   2.087073
     8  P    2.280620   3.837552   2.895498   3.408885   3.415524
     9  H    3.313538   4.831305   3.318380   4.294220   4.175182
    10  H    3.164877   4.583725   3.958453   4.594752   4.575250
    11  H    3.172190   4.664492   3.916795   3.429035   2.876632
    12  Cl   2.451867   3.065401   3.987132   3.262137   3.624484
    13  C    2.245757   1.577421   2.737774   4.148766   5.301956
    14  H    2.915661   1.967803   2.868802   4.607739   5.870252
    15  H    2.840095   1.981046   3.663622   4.474714   5.600134
    16  C    2.139880   2.474420   2.639668   4.403250   5.299010
    17  H    2.689681   3.185800   3.533889   4.868858   5.588596
    18  H    2.753700   3.181263   2.677536   4.981004   5.843809
                    6          7          8          9         10
     6  H    0.000000
     7  H    2.095033   0.000000
     8  P    4.526336   4.387801   0.000000
     9  H    5.568632   4.957098   1.404776   0.000000
    10  H    5.534509   5.698507   1.394752   2.097905   0.000000
    11  H    4.402874   4.425411   1.398243   2.093042   2.092716
    12  Cl   3.418483   4.647671   3.002666   4.406915   3.124956
    13  C    4.603549   4.945472   4.091759   5.012024   4.426898
    14  H    5.075307   5.132598   4.843014   5.583948   5.298351
    15  H    4.623043   5.392741   4.660447   5.749990   4.849086
    16  C    5.141026   5.308690   3.182604   3.975301   3.273994
    17  H    5.505713   5.951750   3.209969   4.122923   2.865233
    18  H    5.888685   5.706396   3.435255   3.845200   3.540000
                   11         12         13         14         15
    11  H    0.000000
    12  Cl   3.201166   0.000000
    13  C    5.188694   3.408203   0.000000
    14  H    5.989845   4.433342   1.089405   0.000000
    15  H    5.600340   3.201018   1.090230   1.832682   0.000000
    16  C    4.439063   3.277285   1.421320   2.170339   2.160459
    17  H    4.346445   2.948942   2.157622   3.069024   2.444197
    18  H    4.809128   4.250620   2.167646   2.475440   3.072776
                   16         17         18
    16  C    0.000000
    17  H    1.089205   0.000000
    18  H    1.088986   1.844372   0.000000
 Stoichiometry    C2H12ClP2Rh
 Framework group  C1[X(C2H12ClP2Rh)]
 Deg. of freedom    48
 Full point group                 C1      NOp   1
 RotChk:  IX=0 Diff= 3.97D-01
 Largest Abelian subgroup         C1      NOp   1
 Largest concise Abelian subgroup C1      NOp   1
                         Standard orientation:                         
 ---------------------------------------------------------------------
 Center     Atomic      Atomic             Coordinates (Angstroms)
 Number     Number       Type             X           Y           Z
 ---------------------------------------------------------------------
      1         45           0       -0.145705   -0.308842   -0.339411
      2          1           0       -0.540179   -1.785923   -0.008974
      3          1           0       -0.197282   -0.693855   -1.828049
      4         15           0        2.044943   -0.908462   -0.151482
      5          1           0        3.017831    0.088407    0.004017
      6          1           0        2.435103   -1.682418    0.944930
      7          1           0        2.729986   -1.640663   -1.128826
      8         15           0        0.212082    1.921372   -0.654628
      9          1           0        0.263681    2.591805   -1.888019
     10          1           0       -0.670199    2.795943   -0.020561
     11          1           0        1.392097    2.457786   -0.130311
     12         17           0        0.002310    0.487050    1.974957
     13          6           0       -2.069784   -1.403468    0.038926
     14          1           0       -2.352160   -2.187080   -0.663229
     15          1           0       -2.185704   -1.674728    1.088489
     16          6           0       -2.269167   -0.044572   -0.326860
     17          1           0       -2.522270    0.663490    0.461146
     18          1           0       -2.675106    0.179871   -1.312116
 ---------------------------------------------------------------------
 Rotational constants (GHZ):           1.2762269           1.0717934           0.9790518
 Leave Link  202 at Thu Dec  4 19:28:28 2025, MaxMem=   104857600 cpu:               0.0 elap:               0.0
 (Enter /usr/local/bin/g16/l301.exe)
 Standard basis: STO-3G (5D, 7F)
 Ernie: Thresh=  0.10000D-02 Tol=  0.10000D-05 Strict=F.
 There are    78 symmetry adapted cartesian basis functions of A   symmetry.
 There are    76 symmetry adapted basis functions of A   symmetry.
    76 basis functions,   234 primitive gaussians,    78 cartesian basis functions
    58 alpha electrons       58 beta electrons
       nuclear repulsion energy      1076.3362569282 Hartrees.



 Warning!  P  atom    4 may be hypervalent but has no d functions.
 Warning!  P  atom    8 may be hypervalent but has no d functions.



 IExCor=    0 DFT=F Ex=HF Corr=None ExCW=0 ScaHFX=  1.000000
 ScaDFX=  1.000000  1.000000  1.000000  1.000000 ScalE2=  1.000000  1.000000
 IRadAn=      5 IRanWt=     -1 IRanGd=            0 ICorTp=0 IEmpDi=  4
 NAtoms=   18 NActive=   18 NUniq=   18 SFac= 1.00D+00 NAtFMM=   60 NAOKFM=F Big=F
 Integral buffers will be    131072 words long.
 Raffenetti 1 integral format.
 Two-electron integral symmetry is turned on.
 Leave Link  301 at Thu Dec  4 19:28:28 2025, MaxMem=   104857600 cpu:               0.0 elap:               0.0
 (Enter /usr/local/bin/g16/l402.exe)
 External calculation of energy and first derivatives.
 Running external command "./xtb.sh R"
         input file       "/usr/local/bin/g16/scratch/Gau-538708.EIn"
         output file      "/usr/local/bin/g16/scratch/Gau-538708.EOu"
         message file     "/usr/local/bin/g16/scratch/Gau-538708.EMs"
         fchk file        "/usr/local/bin/g16/scratch/Gau-538708.EFC"
         mat. el file     "/usr/local/bin/g16/scratch/Gau-538708.EUF"
Using prefix: Gau-538708
Generating Gau-538708_mol.tmp
Generating Gau-538708_mol.xyz via genxyz
Running: xtb mol.xyz --chrg 0 --uhf 0 --grad --gfn 2 > xtbout
xtb running finished!
Warning: XTB may not have terminated normally, check Gau-538708_xtbout
Extracting data from xtb outputs via extderi
 Recovered energy= -24.0851801438     dipole=      0.000000000000      0.000000000000      0.000000000000
 Energy=    -24.0851801     NIter=   0.
 Dipole moment=       0.000000       0.000000       0.000000
 Leave Link  402 at Thu Dec  4 19:28:29 2025, MaxMem=   104857600 cpu:               0.0 elap:               0.7
 (Enter /usr/local/bin/g16/l716.exe)
 Dipole        = 0.00000000D+00 0.00000000D+00 0.00000000D+00
 ***** Axes restored to original set *****
 -------------------------------------------------------------------
 Center     Atomic                   Forces (Hartrees/Bohr)
 Number     Number              X              Y              Z
 -------------------------------------------------------------------
      1       45           0.001585969   -0.005353705   -0.009746778
      2        1           0.005993883    0.008212621    0.001449713
      3        1           0.000537687    0.000738146    0.005329653
      4       15          -0.003012946    0.000794272    0.002120479
      5        1          -0.001915086   -0.005565200   -0.001436416
      6        1           0.000743634    0.005176761   -0.003702195
      7        1          -0.000989916    0.001359350    0.006132566
      8       15          -0.001102893   -0.004212150    0.002740311
      9        1           0.000316502   -0.002207784    0.005705050
     10        1           0.005301210   -0.000134452   -0.003590002
     11        1          -0.005698990    0.000350667   -0.002534933
     12       17           0.001299745    0.000421901   -0.005709588
     13        6           0.000784306   -0.001718693    0.002198975
     14        1          -0.002423474    0.001971843    0.002234861
     15        1          -0.003410673    0.001583113   -0.001803759
     16        6           0.005835628    0.001465557    0.000315451
     17        1          -0.002404133   -0.001429102   -0.002258239
     18        1          -0.001440452   -0.001453143    0.002554850
 -------------------------------------------------------------------
 Cartesian Forces:  Max     0.009746778 RMS     0.003528395
 Leave Link  716 at Thu Dec  4 19:28:29 2025, MaxMem=   104857600 cpu:               0.0 elap:               0.0
 (Enter /usr/local/bin/g16/l103.exe)

 GradGradGradGradGradGradGradGradGradGradGradGradGradGradGradGradGradGrad
 Berny optimization.
 FormGI is forming the generalized inverse of G from B-inverse, IUseBI=4.
 Internal  Forces:  Max     0.009345568 RMS     0.002378272
 Search for a saddle point.
 Step number   2 out of a maximum of  108
 All quantities printed in internal units (Hartrees-Bohrs-Radians)
 Swapping is turned off.
 Update second derivatives using D2CorX and points    1    2
 ITU=  0  0
     Eigenvalues ---   -0.03482  -0.00160  -0.00002   0.00082   0.00193
     Eigenvalues ---    0.00389   0.01056   0.01114   0.01327   0.01365
     Eigenvalues ---    0.01479   0.01515   0.01774   0.02014   0.02264
     Eigenvalues ---    0.02410   0.02461   0.03257   0.03360   0.03701
     Eigenvalues ---    0.03945   0.05081   0.05202   0.06369   0.06959
     Eigenvalues ---    0.07362   0.07442   0.07664   0.07851   0.08332
     Eigenvalues ---    0.08584   0.09352   0.09823   0.10409   0.10625
     Eigenvalues ---    0.10983   0.14564   0.16181   0.16297   0.16351
     Eigenvalues ---    0.16495   0.16870   0.17015   0.30176   0.30463
     Eigenvalues ---    0.30727   0.31601   0.37249
 Eigenvectors required to have negative eigenvalues:
                          A4        A5        A12       A43       A42
   1                   -0.47548  -0.43974  -0.26226  -0.24961  -0.22754
                          A14       A2        R7        A15       D55
   1                    0.22458   0.21219  -0.20174   0.18908  -0.16349
 Eigenvalue     2 is  -1.60D-03 should be greater than     0.000000 Eigenvector:
                          D31       D33       D25       D27       D32
   1                    0.24093   0.24058   0.23093   0.23059   0.21038
                          D26       D7        D22       D24       A13
   1                    0.20039   0.18973   0.18582   0.18548   0.18293
 Eigenvalue     3 is  -2.25D-05 should be greater than     0.000000 Eigenvector:
                          D13       D15       D14       D16       D17
   1                    0.21408   0.21108   0.19672   0.19600   0.19119
                          D10       D12       D4        D6        D20
   1                    0.18897   0.18597   0.18042   0.17743   0.17478
 RFO step:  Lambda0=8.184094967D-04 Lambda=-7.68433064D-03.
 Linear search not attempted -- option 19 set.
 Maximum step size (   0.300) exceeded in Quadratic search.
    -- Step size scaled by   0.715
 Iteration  1 RMS(Cart)=  0.09051733 RMS(Int)=  0.00455065
 Iteration  2 RMS(Cart)=  0.00493562 RMS(Int)=  0.00093306
 Iteration  3 RMS(Cart)=  0.00001292 RMS(Int)=  0.00093299
 Iteration  4 RMS(Cart)=  0.00000001 RMS(Int)=  0.00093299
 ITry= 1 IFail=0 DXMaxC= 3.95D-01 DCOld= 1.00D+10 DXMaxT= 3.00D-01 DXLimC= 3.00D+00 Rises=F
 Variable       Old X    -DE/DX   Delta X   Delta X   Delta X     New X
                                 (Linear)    (Quad)   (Total)
    R1        2.95582  -0.00935   0.00000  -0.05732  -0.05732   2.89849
    R2        2.90732  -0.00533   0.00000  -0.03301  -0.03301   2.87431
    R3        4.30667  -0.00541   0.00000  -0.03847  -0.03847   4.26820
    R4        4.30975  -0.00592   0.00000  -0.06497  -0.06497   4.24477
    R5        4.63336  -0.00559   0.00000  -0.05928  -0.05928   4.57408
    R6        4.24387   0.00391   0.00000   0.00271   0.00283   4.24669
    R7        4.04379  -0.00059   0.00000  -0.04022  -0.03985   4.00394
    R8        2.64861  -0.00551   0.00000  -0.02608  -0.02608   2.62253
    R9        2.64113  -0.00580   0.00000  -0.02741  -0.02741   2.61371
   R10        2.64602  -0.00588   0.00000  -0.01648  -0.01648   2.62955
   R11        2.65464  -0.00562   0.00000  -0.02617  -0.02617   2.62848
   R12        2.63570  -0.00571   0.00000  -0.02055  -0.02055   2.61515
   R13        2.64230  -0.00581   0.00000  -0.02046  -0.02046   2.62184
   R14        2.05868  -0.00230   0.00000  -0.00417  -0.00417   2.05451
   R15        2.06024  -0.00207   0.00000  -0.00354  -0.00354   2.05670
   R16        2.68591  -0.00325   0.00000   0.01411   0.01338   2.69929
   R17        2.05830  -0.00196   0.00000  -0.00235  -0.00235   2.05595
   R18        2.05789  -0.00214   0.00000  -0.00405  -0.00405   2.05383
    A1        1.53042   0.00050   0.00000   0.00718   0.00726   1.53768
    A2        1.54733  -0.00189   0.00000   0.01718   0.01797   1.56531
    A3        1.69346   0.00022   0.00000  -0.02585  -0.02485   1.66861
    A4        0.77853   0.00455   0.00000  -0.04008  -0.03898   0.73954
    A5        1.43551   0.00339   0.00000  -0.03410  -0.03333   1.40218
    A6        1.61698   0.00092   0.00000   0.07840   0.07968   1.69666
    A7        1.68731   0.00075   0.00000  -0.00961  -0.00976   1.67754
    A8        1.58310   0.00026   0.00000   0.01535   0.01594   1.59904
    A9        1.57411   0.00015   0.00000   0.01682   0.01712   1.59123
   A10        1.68896  -0.00044   0.00000  -0.00564  -0.00678   1.68218
   A11        1.52032  -0.00174   0.00000  -0.15180  -0.15341   1.36690
   A12        2.32049   0.00258   0.00000  -0.03230  -0.03439   2.28610
   A13        1.37307  -0.00139   0.00000   0.03570   0.03624   1.40931
   A14        2.25795  -0.00247   0.00000   0.02143   0.02042   2.27838
   A15        1.60652  -0.00121   0.00000   0.01504   0.01437   1.62090
   A16        1.62174   0.00072   0.00000   0.02408   0.02193   1.64367
   A17        1.58508   0.00067   0.00000   0.05484   0.05407   1.63915
   A18        2.08202   0.00230   0.00000  -0.02292  -0.02272   2.05929
   A19        2.07000   0.00264   0.00000  -0.00866  -0.00935   2.06066
   A20        2.15352   0.00222   0.00000   0.06286   0.06270   2.21623
   A21        1.68409  -0.00324   0.00000  -0.01173  -0.01289   1.67120
   A22        1.68078  -0.00300   0.00000  -0.01653  -0.01617   1.66462
   A23        1.69251  -0.00321   0.00000  -0.01589  -0.01590   1.67661
   A24        2.20659   0.00223   0.00000   0.00599   0.00599   2.21258
   A25        2.03881   0.00310   0.00000   0.01855   0.01847   2.05727
   A26        2.04398   0.00202   0.00000   0.02339   0.02325   2.06723
   A27        1.69423  -0.00357   0.00000  -0.02131  -0.02128   1.67295
   A28        1.68620  -0.00293   0.00000  -0.01843  -0.01847   1.66773
   A29        1.69393  -0.00315   0.00000  -0.02271  -0.02290   1.67103
   A30        2.05341   0.00099   0.00000   0.02608   0.02569   2.07910
   A31        1.95471   0.00210   0.00000   0.03529   0.03459   1.98931
   A32        1.99760  -0.00122   0.00000  -0.01380  -0.01536   1.98224
   A33        2.07770   0.00010   0.00000  -0.01140  -0.01205   2.06565
   A34        2.06091  -0.00014   0.00000  -0.00610  -0.00512   2.05579
   A35        1.89138   0.00130   0.00000   0.03384   0.03342   1.92479
   A36        1.97149   0.00015   0.00000   0.02942   0.02979   2.00127
   A37        2.05774  -0.00049   0.00000  -0.00960  -0.01072   2.04703
   A38        2.07394  -0.00082   0.00000  -0.01024  -0.01088   2.06307
   A39        2.01967  -0.00068   0.00000  -0.02172  -0.02302   1.99665
   A40        3.21772   0.00125   0.00000  -0.00243  -0.00251   3.21522
   A41        3.22387   0.00072   0.00000  -0.01867  -0.01759   3.20628
   A42        2.98284   0.00150   0.00000  -0.01691  -0.01536   2.96748
   A43        3.04242   0.00220   0.00000  -0.01771  -0.01767   3.02475
   A44        3.13501  -0.00102   0.00000  -0.07251  -0.07273   3.06227
   A45        3.08556  -0.00093   0.00000  -0.09502  -0.09647   2.98909
    D1       -2.84860   0.00020   0.00000   0.07483   0.07707  -2.77154
    D2       -0.80709  -0.00006   0.00000   0.02933   0.03102  -0.77607
    D3        1.31641   0.00008   0.00000   0.06024   0.06229   1.37871
    D4        1.90530  -0.00018   0.00000   0.06882   0.06963   1.97493
    D5       -2.33637  -0.00045   0.00000   0.02331   0.02359  -2.31279
    D6       -0.21286  -0.00030   0.00000   0.05423   0.05485  -0.15801
    D7        0.21152  -0.00103   0.00000   0.06903   0.07009   0.28161
    D8        2.25303  -0.00129   0.00000   0.02353   0.02405   2.27708
    D9       -1.90664  -0.00115   0.00000   0.05445   0.05532  -1.85133
   D10       -1.15376   0.00058   0.00000   0.05256   0.05405  -1.09971
   D11        0.88775   0.00032   0.00000   0.00705   0.00801   0.89575
   D12        3.01126   0.00046   0.00000   0.03797   0.03927   3.05053
   D13       -2.74718   0.00129   0.00000   0.15989   0.15791  -2.58927
   D14       -0.70567   0.00103   0.00000   0.11438   0.11187  -0.59380
   D15        1.41783   0.00117   0.00000   0.14530   0.14314   1.56097
   D16       -0.78756   0.00026   0.00000   0.07256   0.07056  -0.71700
   D17        1.53334   0.00003   0.00000   0.10589   0.10333   1.63667
   D18        1.24236  -0.00057   0.00000  -0.01747  -0.01726   1.22511
   D19       -2.71992  -0.00080   0.00000   0.01585   0.01551  -2.70441
   D20       -2.98932  -0.00010   0.00000   0.00492   0.00401  -2.98531
   D21       -0.66841  -0.00032   0.00000   0.03825   0.03678  -0.63163
   D22        0.05549   0.00000   0.00000   0.10596   0.10579   0.16128
   D23        2.20209   0.00026   0.00000   0.09974   0.09953   2.30162
   D24       -2.08412  -0.00001   0.00000   0.10169   0.10153  -1.98259
   D25        1.68703   0.00097   0.00000   0.18359   0.18452   1.87155
   D26       -2.44956   0.00123   0.00000   0.17737   0.17826  -2.27129
   D27       -0.45258   0.00096   0.00000   0.17932   0.18026  -0.27232
   D28       -3.10104  -0.00091   0.00000   0.03342   0.03362  -3.06743
   D29       -0.95444  -0.00065   0.00000   0.02720   0.02736  -0.92708
   D30        1.04253  -0.00093   0.00000   0.02914   0.02936   1.07189
   D31       -1.62761  -0.00044   0.00000   0.08939   0.08871  -1.53891
   D32        0.51899  -0.00018   0.00000   0.08317   0.08245   0.60144
   D33        2.51596  -0.00045   0.00000   0.08512   0.08445   2.60041
   D34       -1.52283  -0.00004   0.00000   0.08760   0.08736  -1.43547
   D35        0.62377   0.00023   0.00000   0.08138   0.08110   0.70487
   D36        2.62074  -0.00005   0.00000   0.08332   0.08310   2.70385
   D37       -1.10736  -0.00127   0.00000  -0.02562  -0.02514  -1.13251
   D38        1.26102   0.00034   0.00000   0.02263   0.02360   1.28462
   D39        0.39341  -0.00044   0.00000  -0.03434  -0.03533   0.35808
   D40        2.76179   0.00117   0.00000   0.01392   0.01341   2.77521
   D41       -1.25201  -0.00215   0.00000  -0.15334  -0.15280  -1.40481
   D42        1.11638  -0.00054   0.00000  -0.10509  -0.10406   1.01232
   D43        2.12539   0.00038   0.00000  -0.03093  -0.03134   2.09405
   D44       -1.78941   0.00200   0.00000   0.01733   0.01740  -1.77201
   D45       -2.80124  -0.00052   0.00000   0.03272   0.03263  -2.76861
   D46       -0.43285   0.00109   0.00000   0.08098   0.08137  -0.35148
   D47        2.06367  -0.00042   0.00000  -0.01340  -0.01266   2.05101
   D48       -1.95782  -0.00014   0.00000   0.00841   0.00973  -1.94809
   D49       -2.68993   0.00010   0.00000  -0.00875  -0.00854  -2.69846
   D50       -0.42823   0.00037   0.00000   0.01306   0.01385  -0.41438
   D51       -1.00242   0.00084   0.00000  -0.01764  -0.01731  -1.01974
   D52        1.25927   0.00112   0.00000   0.00417   0.00508   1.26435
   D53        0.37102  -0.00054   0.00000   0.02004   0.02145   0.39246
   D54        2.63272  -0.00026   0.00000   0.04185   0.04383   2.67655
   D55        2.56211  -0.00331   0.00000  -0.07128  -0.07067   2.49144
   D56       -0.02831   0.00072   0.00000   0.01485   0.01481  -0.01350
   D57        0.00689  -0.00064   0.00000  -0.01030  -0.01033  -0.00343
   D58       -2.58352   0.00339   0.00000   0.07583   0.07515  -2.50838
         Item               Value     Threshold  Converged?
 Maximum Force            0.009346     0.000450     NO 
 RMS     Force            0.002378     0.000300     NO 
 Maximum Displacement     0.395215     0.001800     NO 
 RMS     Displacement     0.091394     0.001200     NO 
 Predicted change in Energy=-3.909514D-03
 GradGradGradGradGradGradGradGradGradGradGradGradGradGradGradGradGradGrad

 Leave Link  103 at Thu Dec  4 19:28:29 2025, MaxMem=   104857600 cpu:               0.0 elap:               0.1
 (Enter /usr/local/bin/g16/l202.exe)
                          Input orientation:                          
 ---------------------------------------------------------------------
 Center     Atomic      Atomic             Coordinates (Angstroms)
 Number     Number       Type             X           Y           Z
 ---------------------------------------------------------------------
      1         45           0       -0.141756   -0.154544   -0.494474
      2          1           0       -0.495935   -1.643953   -0.588332
      3          1           0       -0.227904   -0.090315   -2.011691
      4         15           0        2.046642   -0.696350   -0.357420
      5          1           0        2.914955    0.235296    0.193947
      6          1           0        2.408475   -1.735823    0.480189
      7          1           0        2.887835   -1.053530   -1.406742
      8         15           0        0.127121    2.052741   -0.176379
      9          1           0        0.000802    3.053487   -1.134104
     10          1           0       -0.662869    2.669888    0.777643
     11          1           0        1.336593    2.504714    0.331385
     12         17           0        0.216019   -0.147062    1.899424
     13          6           0       -1.986535   -1.432775   -0.380210
     14          1           0       -2.303715   -1.984097   -1.261939
     15          1           0       -2.074046   -2.001516    0.543587
     16          6           0       -2.250171   -0.029958   -0.326082
     17          1           0       -2.527347    0.388558    0.639152
     18          1           0       -2.746432    0.432582   -1.175204
 ---------------------------------------------------------------------
                    Distance matrix (angstroms):
                    1          2          3          4          5
     1  Rh   0.000000
     2  H    1.533816   0.000000
     3  H    1.521018   2.124048   0.000000
     4  P    2.258633   2.723227   2.877055   0.000000
     5  H    3.157432   3.972116   3.853365   1.387782   0.000000
     6  H    3.155010   3.096091   3.983423   1.383118   2.055181
     7  H    3.289199   3.531047   3.316862   1.391496   2.055241
     8  P    2.246238   3.771399   2.843783   3.357803   3.348471
     9  H    3.274280   4.755056   3.271996   4.341656   4.265935
    10  H    3.141218   4.528021   3.948202   4.467815   4.366779
    11  H    3.152651   4.627686   3.830383   3.350438   2.767737
    12  Cl   2.420497   2.989397   3.936637   2.957404   3.215447
    13  C    2.247252   1.519803   2.748948   4.099922   5.209292
    14  H    2.934338   1.958957   2.908184   4.626235   5.854898
    15  H    2.867511   1.974722   3.686513   4.415353   5.478659
    16  C    2.118795   2.398145   2.633341   4.348294   5.198010
    17  H    2.696500   3.124813   3.541713   4.805368   5.462632
    18  H    2.755440   3.117876   2.704833   4.991675   5.827933
                    6          7          8          9         10
     6  H    0.000000
     7  H    2.062964   0.000000
     8  P    4.470892   4.334080   0.000000
     9  H    5.598243   5.027612   1.390930   0.000000
    10  H    5.378840   5.589533   1.383876   2.059705   0.000000
    11  H    4.376440   4.253062   1.387417   2.057461   2.055305
    12  Cl   3.057001   4.346380   3.025888   4.414989   3.156904
    13  C    4.488679   4.995706   4.081410   4.964313   4.463693
    14  H    5.030049   5.276279   4.835646   5.541155   5.339649
    15  H    4.490836   5.415046   4.669099   5.716003   4.885511
    16  C    5.026234   5.349264   3.164105   3.902231   3.320678
    17  H    5.375929   5.965693   3.237406   4.078948   2.949563
    18  H    5.832270   5.831561   3.446720   3.797121   3.627725
                   11         12         13         14         15
    11  H    0.000000
    12  Cl   3.278162   0.000000
    13  C    5.201285   3.420678   0.000000
    14  H    5.994994   4.440493   1.087201   0.000000
    15  H    5.655404   3.243716   1.088359   1.820158   0.000000
    16  C    4.440912   3.323956   1.428401   2.167339   2.162032
    17  H    4.416205   3.066143   2.156115   3.048549   2.434557
    18  H    4.820232   4.308764   2.165413   2.458426   3.054697
                   16         17         18
    16  C    0.000000
    17  H    1.087961   0.000000
    18  H    1.086843   1.828066   0.000000
 Stoichiometry    C2H12ClP2Rh
 Framework group  C1[X(C2H12ClP2Rh)]
 Deg. of freedom    48
 Full point group                 C1      NOp   1
 RotChk:  IX=0 Diff= 3.45D-01
 Largest Abelian subgroup         C1      NOp   1
 Largest concise Abelian subgroup C1      NOp   1
                         Standard orientation:                         
 ---------------------------------------------------------------------
 Center     Atomic      Atomic             Coordinates (Angstroms)
 Number     Number       Type             X           Y           Z
 ---------------------------------------------------------------------
      1         45           0       -0.230724   -0.194030   -0.399029
      2          1           0       -0.693142   -1.655372   -0.342102
      3          1           0       -0.495310   -0.221508   -1.896606
      4         15           0        1.916689   -0.889625   -0.477688
      5          1           0        2.906090    0.007397   -0.100360
      6          1           0        2.306397   -1.897242    0.385939
      7          1           0        2.598750   -1.376289   -1.588638
      8         15           0        0.222688    2.002549   -0.276375
      9          1           0        0.049083    2.946090   -1.283488
     10          1           0       -0.402690    2.737877    0.715245
     11          1           0        1.512385    2.393685    0.053203
     12         17           0        0.413786   -0.059147    1.930181
     13          6           0       -2.129976   -1.319208    0.021632
     14          1           0       -2.587920   -1.900736   -0.774683
     15          1           0       -2.143156   -1.818918    0.988401
     16          6           0       -2.290058    0.100076    0.003381
     17          1           0       -2.419583    0.599741    0.961096
     18          1           0       -2.853142    0.543026   -0.813907
 ---------------------------------------------------------------------
 Rotational constants (GHZ):           1.3316826           1.0950700           0.9999612
 Leave Link  202 at Thu Dec  4 19:28:29 2025, MaxMem=   104857600 cpu:               0.0 elap:               0.1
 (Enter /usr/local/bin/g16/l301.exe)
 Standard basis: STO-3G (5D, 7F)
 Ernie: Thresh=  0.10000D-02 Tol=  0.10000D-05 Strict=F.
 There are    78 symmetry adapted cartesian basis functions of A   symmetry.
 There are    76 symmetry adapted basis functions of A   symmetry.
    76 basis functions,   234 primitive gaussians,    78 cartesian basis functions
    58 alpha electrons       58 beta electrons
       nuclear repulsion energy      1089.3774132116 Hartrees.



 Warning!  P  atom    4 may be hypervalent but has no d functions.
 Warning!  P  atom    8 may be hypervalent but has no d functions.



 IExCor=    0 DFT=F Ex=HF Corr=None ExCW=0 ScaHFX=  1.000000
 ScaDFX=  1.000000  1.000000  1.000000  1.000000 ScalE2=  1.000000  1.000000
 IRadAn=      5 IRanWt=     -1 IRanGd=            0 ICorTp=0 IEmpDi=  4
 NAtoms=   18 NActive=   18 NUniq=   18 SFac= 1.00D+00 NAtFMM=   60 NAOKFM=F Big=F
 Integral buffers will be    131072 words long.
 Raffenetti 1 integral format.
 Two-electron integral symmetry is turned on.
 Leave Link  301 at Thu Dec  4 19:28:29 2025, MaxMem=   104857600 cpu:               0.0 elap:               0.0
 (Enter /usr/local/bin/g16/l402.exe)
 External calculation of energy and first derivatives.
 Running external command "./xtb.sh R"
         input file       "/usr/local/bin/g16/scratch/Gau-538708.EIn"
         output file      "/usr/local/bin/g16/scratch/Gau-538708.EOu"
         message file     "/usr/local/bin/g16/scratch/Gau-538708.EMs"
         fchk file        "/usr/local/bin/g16/scratch/Gau-538708.EFC"
         mat. el file     "/usr/local/bin/g16/scratch/Gau-538708.EUF"
Using prefix: Gau-538708
Generating Gau-538708_mol.tmp
Generating Gau-538708_mol.xyz via genxyz
Running: xtb mol.xyz --chrg 0 --uhf 0 --grad --gfn 2 > xtbout
xtb running finished!
Warning: XTB may not have terminated normally, check Gau-538708_xtbout
Extracting data from xtb outputs via extderi
 Recovered energy= -24.0883580490     dipole=      0.000000000000      0.000000000000      0.000000000000
 Energy=    -24.0883580     NIter=   0.
 Dipole moment=       0.000000       0.000000       0.000000
 Leave Link  402 at Thu Dec  4 19:28:30 2025, MaxMem=   104857600 cpu:               0.0 elap:               0.6
 (Enter /usr/local/bin/g16/l716.exe)
 Dipole        = 0.00000000D+00 0.00000000D+00 0.00000000D+00
 ***** Axes restored to original set *****
 -------------------------------------------------------------------
 Center     Atomic                   Forces (Hartrees/Bohr)
 Number     Number              X              Y              Z
 -------------------------------------------------------------------
      1       45          -0.000856063   -0.001018645   -0.005672470
      2        1           0.001179780   -0.002483358    0.000400024
      3        1           0.000135417    0.000445519    0.000731897
      4       15          -0.001496896    0.000452500    0.001605544
      5        1           0.000037387   -0.001115271    0.000025294
      6        1           0.000711622    0.000805589   -0.000555761
      7        1           0.000488115    0.000026901    0.000710183
      8       15          -0.000348848    0.000202314    0.001197575
      9        1           0.000385980   -0.000014269    0.001097345
     10        1           0.000933321    0.000415923   -0.000440900
     11        1          -0.000951254    0.000449656    0.000068740
     12       17           0.000840553    0.000533862   -0.000973702
     13        6           0.002087671   -0.001271233    0.001080155
     14        1          -0.000984915    0.000973448    0.000501592
     15        1          -0.001411309    0.000999806   -0.000266330
     16        6           0.001498743    0.001710018    0.000342131
     17        1          -0.001276942   -0.000432905   -0.000480978
     18        1          -0.000972362   -0.000679854    0.000629662
 -------------------------------------------------------------------
 Cartesian Forces:  Max     0.005672470 RMS     0.001214490
 Leave Link  716 at Thu Dec  4 19:28:30 2025, MaxMem=   104857600 cpu:               0.0 elap:               0.0
 (Enter /usr/local/bin/g16/l103.exe)

 GradGradGradGradGradGradGradGradGradGradGradGradGradGradGradGradGradGrad
 Berny optimization.
 FormGI is forming the generalized inverse of G from B-inverse, IUseBI=4.
 Internal  Forces:  Max     0.002114557 RMS     0.000646779
 Search for a saddle point.
 Step number   3 out of a maximum of  108
 All quantities printed in internal units (Hartrees-Bohrs-Radians)
 Swapping is turned off.
 Update second derivatives using D2CorX and points    2    3
 ITU=  0  0  0
     Eigenvalues ---   -0.03462  -0.00155  -0.00004   0.00083   0.00195
     Eigenvalues ---    0.00376   0.01053   0.01106   0.01326   0.01362
     Eigenvalues ---    0.01467   0.01514   0.01773   0.02013   0.02252
     Eigenvalues ---    0.02404   0.02459   0.03251   0.03355   0.03690
     Eigenvalues ---    0.03928   0.05102   0.05168   0.06360   0.06953
     Eigenvalues ---    0.07343   0.07447   0.07658   0.07843   0.08394
     Eigenvalues ---    0.08685   0.09501   0.09813   0.10443   0.10616
     Eigenvalues ---    0.11006   0.14643   0.16184   0.16308   0.16405
     Eigenvalues ---    0.16566   0.16891   0.17059   0.30176   0.30462
     Eigenvalues ---    0.30723   0.31602   0.37220
 Eigenvectors required to have negative eigenvalues:
                          A4        A5        A12       A43       A42
   1                    0.46970   0.43512   0.25268   0.24810   0.22251
                          A14       A2        R7        A15       D55
   1                   -0.22056  -0.21261   0.19974  -0.18614   0.16103
 Eigenvalue     2 is  -1.55D-03 should be greater than     0.000000 Eigenvector:
                          D25       D31       D27       D33       D26
   1                   -0.22335  -0.22129  -0.21399  -0.21194  -0.19921
                          D7        D32       D13       D9        D15
   1                   -0.19893  -0.19716  -0.19393  -0.19178  -0.18677
 Eigenvalue     3 is  -3.85D-05 should be greater than     0.000000 Eigenvector:
                          D13       D31       D28       D33       D15
   1                   -0.19593   0.19518   0.19133   0.19116  -0.18989
                          D10       D30       D12       D32       D14
   1                   -0.18826   0.18731  -0.18222   0.18203  -0.17841
 RFO step:  Lambda0=1.035972299D-04 Lambda=-2.56191880D-03.
 Linear search not attempted -- option 19 set.
 Maximum step size (   0.300) exceeded in Quadratic search.
    -- Step size scaled by   0.787
 Iteration  1 RMS(Cart)=  0.09601262 RMS(Int)=  0.00586530
 Iteration  2 RMS(Cart)=  0.00712159 RMS(Int)=  0.00119993
 Iteration  3 RMS(Cart)=  0.00003345 RMS(Int)=  0.00119966
 Iteration  4 RMS(Cart)=  0.00000003 RMS(Int)=  0.00119966
 ITry= 1 IFail=0 DXMaxC= 4.72D-01 DCOld= 1.00D+10 DXMaxT= 3.00D-01 DXLimC= 3.00D+00 Rises=F
 Variable       Old X    -DE/DX   Delta X   Delta X   Delta X     New X
                                 (Linear)    (Quad)   (Total)
    R1        2.89849   0.00211   0.00000   0.06241   0.06241   2.96090
    R2        2.87431  -0.00072   0.00000  -0.00562  -0.00562   2.86869
    R3        4.26820  -0.00018   0.00000   0.00739   0.00726   4.27545
    R4        4.24477   0.00131   0.00000   0.02450   0.02450   4.26927
    R5        4.57408  -0.00084   0.00000   0.01664   0.01664   4.59071
    R6        4.24669   0.00011   0.00000  -0.02735  -0.02688   4.21981
    R7        4.00394   0.00092   0.00000  -0.01858  -0.01788   3.98606
    R8        2.62253  -0.00072   0.00000  -0.00381  -0.00381   2.61872
    R9        2.61371  -0.00076   0.00000  -0.00416  -0.00416   2.60956
   R10        2.62955  -0.00025   0.00000   0.01478   0.01478   2.64433
   R11        2.62848  -0.00080   0.00000  -0.00161  -0.00161   2.62687
   R12        2.61515  -0.00065   0.00000   0.00075   0.00075   2.61589
   R13        2.62184  -0.00066   0.00000   0.00224   0.00224   2.62407
   R14        2.05451  -0.00061   0.00000  -0.00130  -0.00130   2.05322
   R15        2.05670  -0.00064   0.00000  -0.00086  -0.00086   2.05584
   R16        2.69929  -0.00045   0.00000   0.01317   0.01162   2.71091
   R17        2.05595  -0.00027   0.00000   0.00138   0.00138   2.05733
   R18        2.05383  -0.00034   0.00000  -0.00075  -0.00075   2.05309
    A1        1.53768   0.00028   0.00000   0.00155   0.00156   1.53924
    A2        1.56531  -0.00080   0.00000   0.00493   0.00575   1.57106
    A3        1.66861   0.00011   0.00000   0.01846   0.01775   1.68636
    A4        0.73954   0.00166   0.00000  -0.00515  -0.00412   0.73543
[...]
   D49       -2.66482   0.00000   0.00000   0.00005   0.00005  -2.66477
   D50       -0.35018   0.00000   0.00000   0.00005   0.00005  -0.35012
   D51       -0.94390   0.00000   0.00000  -0.00000  -0.00000  -0.94391
   D52        1.37074   0.00000   0.00000  -0.00001  -0.00001   1.37074
   D53        0.38456   0.00000   0.00000   0.00018   0.00018   0.38475
   D54        2.69921   0.00000   0.00000   0.00018   0.00018   2.69939
   D55        2.42133   0.00000   0.00000  -0.00006  -0.00006   2.42127
   D56       -0.02588  -0.00000   0.00000  -0.00006  -0.00006  -0.02594
   D57       -0.02288   0.00000   0.00000  -0.00003  -0.00003  -0.02291
   D58       -2.47009  -0.00000   0.00000  -0.00003  -0.00003  -2.47012
         Item               Value     Threshold  Converged?
 Maximum Force            0.000006     0.000450     YES
 RMS     Force            0.000001     0.000300     YES
 Maximum Displacement     0.000631     0.001800     YES
 RMS     Displacement     0.000130     0.001200     YES
 Predicted change in Energy=-3.448288D-09
 Optimization completed.
    -- Stationary point found.
                           ----------------------------
                           !   Optimized Parameters   !
                           ! (Angstroms and Degrees)  !
 --------------------------                            --------------------------
 ! Name  Definition              Value          Derivative Info.                !
 --------------------------------------------------------------------------------
 ! R1    R(1,2)                  1.5463         -DE/DX =    0.0                 !
 ! R2    R(1,3)                  1.5161         -DE/DX =    0.0                 !
 ! R3    R(1,4)                  2.2617         -DE/DX =    0.0                 !
 ! R4    R(1,8)                  2.2505         -DE/DX =    0.0                 !
 ! R5    R(1,12)                 2.4262         -DE/DX =    0.0                 !
 ! R6    R(1,13)                 2.2329         -DE/DX =    0.0                 !
 ! R7    R(1,16)                 2.108          -DE/DX =    0.0                 !
 ! R8    R(4,5)                  1.3852         -DE/DX =    0.0                 !
 ! R9    R(4,6)                  1.3819         -DE/DX =    0.0                 !
 ! R10   R(4,7)                  1.3942         -DE/DX =    0.0                 !
 ! R11   R(8,9)                  1.3931         -DE/DX =    0.0                 !
 ! R12   R(8,10)                 1.3818         -DE/DX =    0.0                 !
 ! R13   R(8,11)                 1.3846         -DE/DX =    0.0                 !
 ! R14   R(13,14)                1.0864         -DE/DX =    0.0                 !
 ! R15   R(13,15)                1.0877         -DE/DX =    0.0                 !
 ! R16   R(13,16)                1.4356         -DE/DX =    0.0                 !
 ! R17   R(16,17)                1.0882         -DE/DX =    0.0                 !
 ! R18   R(16,18)                1.0867         -DE/DX =    0.0                 !
 ! A1    A(2,1,3)               88.9663         -DE/DX =    0.0                 !
 ! A2    A(2,1,4)               90.0155         -DE/DX =    0.0                 !
 ! A3    A(2,1,12)              97.2659         -DE/DX =    0.0                 !
 ! A4    A(2,1,13)              42.383          -DE/DX =    0.0                 !
 ! A5    A(2,1,16)              80.6689         -DE/DX =    0.0                 !
 ! A6    A(3,1,4)               99.395          -DE/DX =    0.0                 !
 ! A7    A(3,1,8)               98.5268         -DE/DX =    0.0                 !
 ! A8    A(3,1,13)              93.3671         -DE/DX =    0.0                 !
 ! A9    A(3,1,16)              91.289          -DE/DX =    0.0                 !
 ! A10   A(4,1,8)               94.9859         -DE/DX =    0.0                 !
 ! A11   A(4,1,12)              75.2143         -DE/DX =    0.0                 !
 ! A12   A(4,1,13)             130.516          -DE/DX =    0.0                 !
 ! A13   A(8,1,12)              75.9354         -DE/DX =    0.0                 !
 ! A14   A(8,1,13)             130.1443         -DE/DX =    0.0                 !
 ! A15   A(8,1,16)              92.7496         -DE/DX =    0.0                 !
 ! A16   A(12,1,13)             94.939          -DE/DX =    0.0                 !
 ! A17   A(12,1,16)             95.1267         -DE/DX =    0.0                 !
 ! A18   A(1,4,5)              117.9332         -DE/DX =    0.0                 !
 ! A19   A(1,4,6)              118.3601         -DE/DX =    0.0                 !
 ! A20   A(1,4,7)              128.0691         -DE/DX =    0.0                 !
 ! A21   A(5,4,6)               95.301          -DE/DX =    0.0                 !
 ! A22   A(5,4,7)               94.8748         -DE/DX =    0.0                 !
 ! A23   A(6,4,7)               95.1888         -DE/DX =    0.0                 !
 ! A24   A(1,8,9)              127.8678         -DE/DX =    0.0                 !
 ! A25   A(1,8,10)             117.8222         -DE/DX =    0.0                 !
 ! A26   A(1,8,11)             118.1617         -DE/DX =    0.0                 !
 ! A27   A(9,8,10)              95.3105         -DE/DX =    0.0                 !
 ! A28   A(9,8,11)              95.1273         -DE/DX =    0.0                 !
 ! A29   A(10,8,11)             95.6406         -DE/DX =    0.0                 !
 ! A30   A(1,13,14)            120.9949         -DE/DX =    0.0                 !
 ! A31   A(1,13,15)            114.2307         -DE/DX =    0.0                 !
 ! A32   A(14,13,15)           113.3782         -DE/DX =    0.0                 !
 ! A33   A(14,13,16)           117.3994         -DE/DX =    0.0                 !
 ! A34   A(15,13,16)           117.051          -DE/DX =    0.0                 !
 ! A35   A(1,16,17)            111.8295         -DE/DX =    0.0                 !
 ! A36   A(1,16,18)            116.2749         -DE/DX =    0.0                 !
 ! A37   A(13,16,17)           116.8727         -DE/DX =    0.0                 !
 ! A38   A(13,16,18)           117.5224         -DE/DX =    0.0                 !
 ! A39   A(17,16,18)           113.517          -DE/DX =    0.0                 !
 ! A40   L(2,1,8,3,-1)         187.493          -DE/DX =    0.0                 !
 ! A41   L(3,1,12,2,-1)        186.2322         -DE/DX =    0.0                 !
 ! A42   L(4,1,16,2,-1)        170.6844         -DE/DX =    0.0                 !
 ! A43   L(2,1,8,3,-2)         173.6161         -DE/DX =    0.0                 !
 ! A44   L(3,1,12,2,-2)        174.4901         -DE/DX =    0.0                 !
 ! A45   L(4,1,16,2,-2)        169.1274         -DE/DX =    0.0                 !
 ! D1    D(2,1,4,5)           -155.5662         -DE/DX =    0.0                 !
 ! D2    D(2,1,4,6)            -41.6725         -DE/DX =    0.0                 !
 ! D3    D(2,1,4,7)             81.9232         -DE/DX =    0.0                 !
 ! D4    D(3,1,4,5)            115.4791         -DE/DX =    0.0                 !
 ! D5    D(3,1,4,6)           -130.6273         -DE/DX =    0.0                 !
 ! D6    D(3,1,4,7)             -7.0315         -DE/DX =    0.0                 !
 ! D7    D(8,1,4,5)             15.9648         -DE/DX =    0.0                 !
 ! D8    D(8,1,4,6)            129.8585         -DE/DX =    0.0                 !
 ! D9    D(8,1,4,7)           -106.5458         -DE/DX =    0.0                 !
 ! D10   D(12,1,4,5)           -58.0541         -DE/DX =    0.0                 !
 ! D11   D(12,1,4,6)            55.8396         -DE/DX =    0.0                 !
 ! D12   D(12,1,4,7)           179.4353         -DE/DX =    0.0                 !
 ! D13   D(13,1,4,5)          -141.8294         -DE/DX =    0.0                 !
 ! D14   D(13,1,4,6)           -27.9357         -DE/DX =    0.0                 !
 ! D15   D(13,1,4,7)            95.66           -DE/DX =    0.0                 !
 ! D16   D(5,4,16,17)          -36.7561         -DE/DX =    0.0                 !
 ! D17   D(5,4,16,18)           99.9968         -DE/DX =    0.0                 !
 ! D18   D(6,4,16,17)           73.0717         -DE/DX =    0.0                 !
 ! D19   D(6,4,16,18)         -150.1754         -DE/DX =    0.0                 !
 ! D20   D(7,4,16,17)         -167.4926         -DE/DX =    0.0                 !
 ! D21   D(7,4,16,18)          -30.7397         -DE/DX =    0.0                 !
 ! D22   D(3,1,8,9)              6.0128         -DE/DX =    0.0                 !
 ! D23   D(3,1,8,10)           128.8954         -DE/DX =    0.0                 !
 ! D24   D(3,1,8,11)          -116.9894         -DE/DX =    0.0                 !
 ! D25   D(4,1,8,9)            106.311          -DE/DX =    0.0                 !
 ! D26   D(4,1,8,10)          -130.8065         -DE/DX =    0.0                 !
 ! D27   D(4,1,8,11)           -16.6912         -DE/DX =    0.0                 !
 ! D28   D(12,1,8,9)           179.6955         -DE/DX =    0.0                 !
 ! D29   D(12,1,8,10)          -57.4219         -DE/DX =    0.0                 !
 ! D30   D(12,1,8,11)           56.6933         -DE/DX =    0.0                 !
 ! D31   D(13,1,8,9)           -95.7664         -DE/DX =    0.0                 !
 ! D32   D(13,1,8,10)           27.1162         -DE/DX =    0.0                 !
 ! D33   D(13,1,8,11)          141.2314         -DE/DX =    0.0                 !
 ! D34   D(16,1,8,9)           -85.7048         -DE/DX =    0.0                 !
 ! D35   D(16,1,8,10)           37.1778         -DE/DX =    0.0                 !
 ! D36   D(16,1,8,11)          151.293          -DE/DX =    0.0                 !
 ! D37   D(2,1,13,14)          -63.902          -DE/DX =    0.0                 !
 ! D38   D(2,1,13,15)           77.1744         -DE/DX =    0.0                 !
 ! D39   D(3,1,13,14)           20.8607         -DE/DX =    0.0                 !
 ! D40   D(3,1,13,15)          161.9372         -DE/DX =    0.0                 !
 ! D41   D(4,1,13,14)          -84.5285         -DE/DX =    0.0                 !
 ! D42   D(4,1,13,15)           56.548          -DE/DX =    0.0                 !
 ! D43   D(8,1,13,14)          124.9788         -DE/DX =    0.0                 !
 ! D44   D(8,1,13,15)          -93.9448         -DE/DX =    0.0                 !
 ! D45   D(12,1,13,14)        -159.2744         -DE/DX =    0.0                 !
 ! D46   D(12,1,13,15)         -18.198          -DE/DX =    0.0                 !
 ! D47   D(2,1,16,17)          118.5766         -DE/DX =    0.0                 !
 ! D48   D(2,1,16,18)         -108.8039         -DE/DX =    0.0                 !
 ! D49   D(3,1,16,17)         -152.6832         -DE/DX =    0.0                 !
 ! D50   D(3,1,16,18)          -20.0636         -DE/DX =    0.0                 !
 ! D51   D(8,1,16,17)          -54.0817         -DE/DX =    0.0                 !
 ! D52   D(8,1,16,18)           78.5378         -DE/DX =    0.0                 !
 ! D53   D(12,1,16,17)          22.0339         -DE/DX =    0.0                 !
 ! D54   D(12,1,16,18)         154.6534         -DE/DX =    0.0                 !
 ! D55   D(14,13,16,17)        138.7319         -DE/DX =    0.0                 !
 ! D56   D(14,13,16,18)         -1.483          -DE/DX =    0.0                 !
 ! D57   D(15,13,16,17)         -1.3108         -DE/DX =    0.0                 !
 ! D58   D(15,13,16,18)       -141.5257         -DE/DX =    0.0                 !
 --------------------------------------------------------------------------------
 Largest change from initial coordinates is atom   14       0.490 Angstoms.
 GradGradGradGradGradGradGradGradGradGradGradGradGradGradGradGradGradGrad

 Leave Link  103 at Thu Dec  4 19:28:46 2025, MaxMem=   104857600 cpu:               0.0 elap:               0.1
 (Enter /usr/local/bin/g16/l202.exe)
                          Input orientation:                          
 ---------------------------------------------------------------------
 Center     Atomic      Atomic             Coordinates (Angstroms)
 Number     Number       Type             X           Y           Z
 ---------------------------------------------------------------------
      1         45           0       -0.154124   -0.161757   -0.561656
      2          1           0       -0.511071   -1.665024   -0.624444
      3          1           0       -0.262793   -0.100980   -2.072604
      4         15           0        2.036855   -0.689374   -0.370001
      5          1           0        2.875866    0.232513    0.234197
      6          1           0        2.389025   -1.741545    0.453671
      7          1           0        2.933921   -1.018368   -1.385356
      8         15           0        0.137381    2.033290   -0.159506
      9          1           0        0.076047    3.085139   -1.070822
     10          1           0       -0.680107    2.630817    0.780673
     11          1           0        1.328426    2.439282    0.418081
     12         17           0        0.302780   -0.054022    1.818721
     13          6           0       -1.976570   -1.434441   -0.350188
     14          1           0       -2.350025   -2.020037   -1.185603
     15          1           0       -2.054095   -1.947792    0.605561
     16          6           0       -2.247755   -0.024715   -0.357986
     17          1           0       -2.533395    0.426479    0.590161
     18          1           0       -2.788635    0.377875   -1.210152
 ---------------------------------------------------------------------
                    Distance matrix (angstroms):
                    1          2          3          4          5
     1  Rh   0.000000
     2  H    1.546340   0.000000
     3  H    1.516069   2.145937   0.000000
     4  P    2.261747   2.740175   2.921206   0.000000
     5  H    3.157478   3.976085   3.909441   1.385233   0.000000
     6  H    3.161365   3.094955   4.013186   1.381855   2.045016
     7  H    3.308819   3.586798   3.396011   1.394242   2.047200
     8  P    2.250540   3.783410   2.893992   3.326441   3.301076
     9  H    3.294626   4.807080   3.357043   4.310785   4.204704
    10  H    3.142766   4.522962   3.972160   4.441802   4.323823
    11  H    3.150117   4.616918   3.897232   3.303246   2.701520
    12  Cl   2.426224   3.037554   3.932491   2.863772   3.035389
    13  C    2.232880   1.508666   2.771617   4.082046   5.163950
    14  H    2.943552   1.955169   2.970873   4.656241   5.865130
    15  H    2.856958   1.993438   3.713764   4.389899   5.403347
    16  C    2.107974   2.403682   2.624081   4.335873   5.164140
    17  H    2.708069   3.152689   3.538949   4.801481   5.424430
    18  H    2.766297   3.115091   2.711641   5.013005   5.847550
                    6          7          8          9         10
     6  H    0.000000
     7  H    2.049857   0.000000
     8  P    4.437936   4.316939   0.000000
     9  H    5.565144   5.010504   1.393070   0.000000
    10  H    5.352014   5.573997   1.381760   2.050905   0.000000
    11  H    4.313404   4.217268   1.384566   2.049979   2.049967
    12  Cl   3.010567   4.256639   2.880558   4.272610   3.041706
    13  C    4.449598   5.035634   4.065748   5.015890   4.414293
    14  H    5.022288   5.381758   4.865133   5.653479   5.318394
    15  H    4.450498   5.450494   4.608352   5.716482   4.783531
    16  C    5.010591   5.375184   3.156525   3.947073   3.287235
    17  H    5.380444   5.990141   3.205758   4.078790   2.886187
    18  H    5.836815   5.893033   3.522190   3.943995   3.672196
                   11         12         13         14         15
    11  H    0.000000
    12  Cl   3.038141   0.000000
    13  C    5.149656   3.435864   0.000000
    14  H    5.999027   4.464140   1.086420   0.000000
    15  H    5.542834   3.257757   1.087656   1.816883   0.000000
    16  C    4.411647   3.353229   1.435594   2.162572   2.159665
    17  H    4.358284   3.127960   2.158086   3.028597   2.422216
    18  H    4.883720   4.349420   2.164134   2.437819   3.040574
                   16         17         18
    16  C    0.000000
    17  H    1.088186   0.000000
    18  H    1.086653   1.818965   0.000000
 Stoichiometry    C2H12ClP2Rh
 Framework group  C1[X(C2H12ClP2Rh)]
 Deg. of freedom    48
 Full point group                 C1      NOp   1
 RotChk:  IX=0 Diff= 3.97D-15
 Largest Abelian subgroup         C1      NOp   1
 Largest concise Abelian subgroup C1      NOp   1
                         Standard orientation:                         
 ---------------------------------------------------------------------
 Center     Atomic      Atomic             Coordinates (Angstroms)
 Number     Number       Type             X           Y           Z
 ---------------------------------------------------------------------
      1         45           0       -0.277914   -0.243871   -0.393124
      2          1           0       -0.788287   -1.680291   -0.133537
      3          1           0       -0.618178   -0.417557   -1.860270
      4         15           0        1.852121   -1.004096   -0.415612
      5          1           0        2.863946   -0.108700   -0.110084
      6          1           0        2.223823   -1.943381    0.527312
      7          1           0        2.539544   -1.604578   -1.469548
      8         15           0        0.290910    1.933136   -0.437951
      9          1           0        0.190971    2.821254   -1.506550
     10          1           0       -0.303506    2.774110    0.483295
     11          1           0        1.592918    2.275138   -0.114171
     12         17           0        0.559068    0.192982    1.841867
     13          6           0       -2.161400   -1.225756    0.295453
     14          1           0       -2.719058   -1.888333   -0.360534
     15          1           0       -2.137162   -1.562232    1.329471
     16          6           0       -2.288560    0.186507    0.071240
     17          1           0       -2.373854    0.818778    0.952777
     18          1           0       -2.914874    0.509205   -0.756051
 ---------------------------------------------------------------------
 Rotational constants (GHZ):           1.3702010           1.1105188           0.9966986
 Leave Link  202 at Thu Dec  4 19:28:46 2025, MaxMem=   104857600 cpu:               0.0 elap:               0.0
 (Enter /usr/local/bin/g16/l601.exe)
 Leave Link  601 at Thu Dec  4 19:28:46 2025, MaxMem=   104857600 cpu:               0.0 elap:               0.0
 (Enter /usr/local/bin/g16/l9999.exe)
 1\1\GINC-LAPTOP-F8G6GB8F\FTS\RExternal='./xtb.sh'\ZDO\C2H12Cl1P2Rh1\TA
 NGKUN\04-Dec-2025\0\\#p opt(calcfc,noeigen,nomicro,ts) external='./xtb
 .sh'\\Rh_ts_xtb\\0,1\Rh,-0.1541236164,-0.1617566665,-0.561656109\H,-0.
 511070784,-1.6650244407,-0.6244439067\H,-0.2627934821,-0.100979841,-2.
 0726037547\P,2.0368548657,-0.6893739334,-0.3700011822\H,2.8758659742,0
 .2325133442,0.2341974619\H,2.3890253434,-1.7415449968,0.4536708276\H,2
 .9339206656,-1.0183684198,-1.385356135\P,0.1373806405,2.0332904694,-0.
 1595060133\H,0.0760474381,3.0851394246,-1.0708216827\H,-0.6801073207,2
 .6308171932,0.7806733308\H,1.3284255449,2.4392817708,0.4180814204\Cl,0
 .3027803424,-0.0540221703,1.8187207872\C,-1.9765699302,-1.4344407748,-
 0.3501880824\H,-2.3500247652,-2.0200368148,-1.1856029085\H,-2.05409539
 53,-1.9477919364,0.6055613454\C,-2.2477549207,-0.0247146706,-0.3579864
 738\H,-2.5333948776,0.4264793413,0.5901607864\H,-2.7886347225,0.377875
 1215,-1.2101517114\\Version=ES64L-G16RevA.03\HF=-24.0892206\RMSD=0.000
 e+00\RMSF=2.816e-06\Dipole=0.,0.,0.\PG=C01 [X(C2H12Cl1P2Rh1)]\\@


 IT IS NOT EASY TO DESCRIBE
     THE SEA WITH THE MOUTH

                   -- KOKYU
 Job cpu time:       0 days  0 hours  0 minutes  2.6 seconds.
 Elapsed time:       0 days  0 hours  0 minutes 20.3 seconds.
 File lengths (MBytes):  RWF=      6 Int=      0 D2E=      0 Chk=      2 Scr=      1
 Normal termination of Gaussian 16 at Thu Dec  4 19:28:46 2025.
