 Entering Gaussian System, Link 0=g16
 Input=ts2e.gjf
 Output=ts2e.log
 Initial command:
 /usr/local/bin/g16/l1.exe "/usr/local/bin/g16/scratch/Gau-538709.inp" -scrdir="/usr/local/bin/g16/scratch/"
 Entering Link 1 = /usr/local/bin/g16/l1.exe PID=    538711.
  
 Copyright (c) 1988,1990,1992,1993,1995,1998,2003,2009,2016,
            Gaussian, Inc.  All Rights Reserved.
  
 This is part of the Gaussian(R) 16 program.  It is based on
 the Gaussian(R) 09 system (copyright 2009, Gaussian, Inc.),
 the Gaussian(R) 03 system (copyright 2003, Gaussian, Inc.),
 the Gaussian(R) 98 system (copyright 1998, Gaussian, Inc.),
 the Gaussian(R) 94 system (copyright 1995, Gaussian, Inc.),
 the Gaussian 92(TM) system (copyright 1992, Gaussian, Inc.),
 the Gaussian 90(TM) system (copyright 1990, Gaussian, Inc.),
 the Gaussian 88(TM) system (copyright 1988, Gaussian, Inc.),
 the Gaussian 86(TM) system (copyright 1986, Carnegie Mellon
 University), and the Gaussian 82(TM) system (copyright 1983,
 Carnegie Mellon University). Gaussian is a federally registered
 trademark of Gaussian, Inc.
  
 This software contains proprietary and confidential information,
 including trade secrets, belonging to Gaussian, Inc.
  
 This software is provided under written license and may be
 used, copied, transmitted, or stored only in accord with that
 written license.
  
 The following legend is applicable only to US Government
 contracts under FAR:
  
                    RESTRICTED RIGHTS LEGEND
  
 Use, reproduction and disclosure by the US Government is
 subject to restrictions as set forth in subparagraphs (a)
 and (c) of the Commercial Computer Software - Restricted
 Rights clause in FAR 52.227-19.
  
 Gaussian, Inc.
 340 Quinnipiac St., Bldg. 40, Wallingford CT 06492
  
  
 ---------------------------------------------------------------
 Warning -- This program may not be used in any manner that
 competes with the business of Gaussian, Inc. or will provide
 assistance to any competitor of Gaussian, Inc.  The licensee
 of this program is prohibited from giving any competitor of
 Gaussian, Inc. access to this program.  By using this program,
 the user acknowledges that Gaussian, Inc. is engaged in the
 business of creating and licensing software in the field of
 computational chemistry and represents and warrants to the
 licensee that it is not a competitor of Gaussian, Inc. and that
 it will not use this program in any manner prohibited above.
 ---------------------------------------------------------------
  

 Cite this work as:
 Gaussian 16, Revision A.03,
 M. J. Frisch, G. W. Trucks, H. B. Schlegel, G. E. Scuseria, 
 M. A. Robb, J. R. Cheeseman, G. Scalmani, V. Barone, 
 G. A. Petersson, H. Nakatsuji, X. Li, M. Caricato, A. V. Marenich, 
 J. Bloino, B. G. Janesko, R. Gomperts, B. Mennucci, H. P. Hratchian, 
 J. V. Ortiz, A. F. Izmaylov, J. L. Sonnenberg, D. Williams-Young, 
 F. Ding, F. Lipparini, F. Egidi, J. Goings, B. Peng, A. Petrone, 
 T. Henderson, D. Ranasinghe, V. G. Zakrzewski, J. Gao, N. Rega, 
 G. Zheng, W. Liang, M. Hada, M. Ehara, K. Toyota, R. Fukuda, 
 J. Hasegawa, M. Ishida, T. Nakajima, Y. Honda, O. Kitao, H. Nakai, 
 T. Vreven, K. Throssell, J. A. Montgomery, Jr., J. E. Peralta, 
 F. Ogliaro, M. J. Bearpark, J. J. Heyd, E. N. Brothers, K. N. Kudin, 
 V. N. Staroverov, T. A. Keith, R. Kobayashi, J. Normand, 
 K. Raghavachari, A. P. Rendell, J. C. Burant, S. S. Iyengar, 
 J. Tomasi, M. Cossi, J. M. Millam, M. Klene, C. Adamo, R. Cammi, 
 J. W. Ochterski, R. L. Martin, K. Morokuma, O. Farkas, 
 J. B. Foresman, and D. J. Fox, Gaussian, Inc., Wallingford CT, 2016.
 
 ******************************************
 Gaussian 16:  ES64L-G16RevA.03 25-Dec-2016
                 4-Dec-2025 
 ******************************************
 %chk=ts2e.chk
 %nprocshared=1
 Will use up to    1 processors via shared memory.
 %mem=8GB
 -------------------------------------------------
 # opt=(nomicro,maxcycle=1000) external='./xtb.sh'
 -------------------------------------------------
 1/6=1000,18=20,19=15,26=1,38=1/1,3;
 2/9=110,12=2,17=6,18=5,40=1/2;
 3/11=9,25=1,30=1,41=9900000,43=2,71=1/1;
 4/20=17,22=1,24=3,113=1,114=1/2;
 6/7=2,8=2,9=2,10=2/1;
 7/44=-1/16;
 1/6=1000,18=20,19=15,26=1/3(2);
 2/9=110/2;
 99//99;
 2/9=110/2;
 3/11=9,25=1,30=1,41=9900000,43=2,71=1/1;
 4/16=2,20=17,22=1,24=3,113=1,114=1/2;
 7/44=-1/16;
 1/6=1000,18=20,19=15,26=1/3(-4);
 2/9=110/2;
 6/7=2,8=2,9=2,10=2/1;
 99//99;
 ---
 ts2
 ---
 Symbolic Z-matrix:
 Charge =  0 Multiplicity = 1
 C                    -1    2.58133  -1.66383  -0.84827 
 C                    0     2.46429  -2.24088  -2.25992 
 H                    0     2.08138  -1.49977  -2.96303 
 H                    0     3.06943  -2.42116  -0.22185 
 H                    0     3.44164  -2.57225  -2.61983 
 H                    0     1.80236  -3.10627  -2.26876 
 Rh                   -1    0.5841   -0.30156  -0.52901 
 C                    -1    0.88385  -2.00519   0.09459 
 O                    0     0.78427  -3.08182   0.54218 
 P                    0    -1.69336  -0.57598  -0.45766 
 C                    0     0.73582   1.19539  -1.63985 
 O                    0     0.89165   1.98444  -2.46929 
 C                    0     3.49114  -0.41786  -0.79957 
 H                    0     3.30061   0.21741  -1.67065 
 H                    0     3.30584   0.17756   0.0999 
 C                    0     4.9765   -0.80506  -0.79924 
 H                    0     5.20769  -1.38712  -1.69363 
 H                    0     5.18859  -1.43545   0.06869 
 C                    0     5.87834   0.42613  -0.7589 
 H                    0     5.66441   1.05759  -1.62475 
 H                    0     5.65321   1.01026   0.13732 
 C                    0     7.35921   0.0552   -0.7605 
 H                    0     7.57509  -0.57419   0.10655 
 H                    0     7.58371  -0.52986  -1.65578 
 C                    0     8.26175   1.28605  -0.72553 
 H                    0     8.03829   1.87127   0.16971 
 H                    0     8.04642   1.91484  -1.59264 
 C                    0     9.7379    0.90856  -0.72834 
 H                    0     9.98448   0.34077  -1.62307 
 H                    0     10.36233   1.79881  -0.70407 
 H                    0     9.97708   0.2978    0.13977 
 C                    0    -2.25855   3.5633    0.91715 
 C                    0    -1.5662    4.35042   0.00407 
 C                    0    -0.20823   4.08645  -0.15213 
 C                    0     0.37659   3.06464   0.57009 
 C                    0    -0.41982   2.32278   1.44382 
 N                    0    -1.71201   2.58992   1.61979 
 H                    0     0.38156   4.6791   -0.83768 
 H                    0    -3.31661   3.72049   1.08933 
 H                    0     1.43079   2.84681   0.48884 
 C                    0     0.15114   1.23259   2.25141 
 C                    0    -0.32567   0.99762   3.53766 
 C                    0     1.68902  -0.4421    2.4674 
 C                    0     0.2202   -0.02734   4.28623 
 H                    0    -1.11538   1.62139   3.92426 
 C                    0     1.25811  -0.77664   3.74681 
 H                    0     2.52835  -0.97325   2.03526 
 H                    0    -0.14744  -0.23949   5.27993 
 C                    0     1.88803  -1.91482   4.48252 
 H                    0     2.97369  -1.85264   4.43514 
 H                    0     1.57729  -1.92569   5.52417 
 H                    0     1.5876   -2.85576   4.0215 
 C                    0    -2.23919   5.45231  -0.74898 
 H                    0    -1.86625   5.50106  -1.76978 
 H                    0    -3.3158    5.30324  -0.76891 
 H                    0    -2.03334   6.41086  -0.27101 
 N                    0     1.1488    0.51363   1.7164 
 C                    0    -2.94701   0.71455  -0.81123 
 C                    0    -2.64578   1.60753  -1.83357 
 C                    0    -4.19515   0.78051  -0.20299 
 C                    0    -3.56316   2.55979  -2.23384 
 H                    0    -1.68118   1.54378  -2.31664 
 C                    0    -5.10908   1.74165  -0.59754 
 H                    0    -4.45788   0.08826   0.58314 
 C                    0    -4.79743   2.63316  -1.60989 
 H                    0    -3.3174    3.24396  -3.03285 
 H                    0    -6.07447   1.79047  -0.11399 
 H                    0    -5.51721   3.37879  -1.91591 
 C                    0    -2.29103  -1.78443  -1.69671 
 C                    0    -3.58655  -2.29016  -1.66217 
 C                    0    -1.42947  -2.17429  -2.71304 
 C                    0    -4.00113  -3.18993  -2.62591 
 H                    0    -4.26345  -1.98301  -0.87735 
 C                    0    -1.8475   -3.07208  -3.67902 
 H                    0    -0.42379  -1.76393  -2.72489 
 C                    0    -3.13358  -3.58307  -3.63359 
 H                    0    -5.00494  -3.58843  -2.59296 
 H                    0    -1.17108  -3.37553  -4.46491 
 H                    0    -3.46242  -4.2884   -4.38278 
 C                    0    -2.27089  -1.32284   1.09789 
 C                    0    -2.61952  -0.51625   2.17852 
 C                    0    -2.21717  -2.70473   1.26316 
 C                    0    -2.94221  -1.09115   3.39455 
 H                    0    -2.6309    0.5588    2.06008 
 C                    0    -2.53026  -3.27071   2.48466 
 H                    0    -1.92616  -3.33315   0.43332 
 C                    0    -2.89724  -2.46645   3.55149 
 H                    0    -3.22512  -0.46165   4.22618 
 H                    0    -2.48455  -4.3433    2.60599 
 H                    0    -3.14377  -2.91189   4.50462 
 
 Add virtual bond connecting atoms C8         and C1         Dist= 3.73D+00.
 Add virtual bond connecting atoms H15        and H47        Dist= 4.50D+00.
 Add virtual bond connecting atoms H84        and N37        Dist= 4.29D+00.

 GradGradGradGradGradGradGradGradGradGradGradGradGradGradGradGradGradGrad
 Berny optimization.
 Initialization pass.
                           ----------------------------
                           !    Initial Parameters    !
                           ! (Angstroms and Degrees)  !
 --------------------------                            --------------------------
 ! Name  Definition              Value          Derivative Info.                !
 --------------------------------------------------------------------------------
 ! X1    R(1,-1)                 2.5813         Frozen                          !
 ! Y1    R(1,-2)                -1.6638         Frozen                          !
 ! Z1    R(1,-3)                -0.8483         Frozen                          !
 ! X7    R(7,-1)                 0.5841         Frozen                          !
 ! Y7    R(7,-2)                -0.3016         Frozen                          !
 ! Z7    R(7,-3)                -0.529          Frozen                          !
 ! X8    R(8,-1)                 0.8838         Frozen                          !
 ! Y8    R(8,-2)                -2.0052         Frozen                          !
 ! Z8    R(8,-3)                 0.0946         Frozen                          !
 ! R1    R(1,2)                  1.5295         estimate D2E/DX2                !
 ! R2    R(1,4)                  1.0974         estimate D2E/DX2                !
 ! R3    R(1,13)                 1.5436         estimate D2E/DX2                !
 ! R4    R(2,3)                  1.091          estimate D2E/DX2                !
 ! R5    R(2,5)                  1.093          estimate D2E/DX2                !
 ! R6    R(2,6)                  1.0896         estimate D2E/DX2                !
 ! R7    R(7,10)                 2.295          estimate D2E/DX2                !
 ! R8    R(7,11)                 1.8703         estimate D2E/DX2                !
 ! R9    R(8,9)                  1.1702         estimate D2E/DX2                !
 ! R10   R(10,58)                1.8336         estimate D2E/DX2                !
 ! R11   R(10,69)                1.8311         estimate D2E/DX2                !
 ! R12   R(10,80)                1.8196         estimate D2E/DX2                !
 ! R13   R(11,12)                1.1554         estimate D2E/DX2                !
 ! R14   R(13,14)                1.0948         estimate D2E/DX2                !
 ! R15   R(13,15)                1.0945         estimate D2E/DX2                !
 ! R16   R(13,16)                1.535          estimate D2E/DX2                !
 ! R17   R(15,47)                2.3821         estimate D2E/DX2                !
 ! R18   R(16,17)                1.0919         estimate D2E/DX2                !
 ! R19   R(16,18)                1.0935         estimate D2E/DX2                !
 ! R20   R(16,19)                1.5267         estimate D2E/DX2                !
 ! R21   R(19,20)                1.0928         estimate D2E/DX2                !
 ! R22   R(19,21)                1.0932         estimate D2E/DX2                !
 ! R23   R(19,22)                1.5266         estimate D2E/DX2                !
 ! R24   R(22,23)                1.0929         estimate D2E/DX2                !
 ! R25   R(22,24)                1.0928         estimate D2E/DX2                !
 ! R26   R(22,25)                1.5267         estimate D2E/DX2                !
 ! R27   R(25,26)                1.0926         estimate D2E/DX2                !
 ! R28   R(25,27)                1.0925         estimate D2E/DX2                !
 ! R29   R(25,28)                1.5237         estimate D2E/DX2                !
 ! R30   R(28,29)                1.088          estimate D2E/DX2                !
 ! R31   R(28,30)                1.0877         estimate D2E/DX2                !
 ! R32   R(28,31)                1.088          estimate D2E/DX2                !
 ! R33   R(32,33)                1.3902         estimate D2E/DX2                !
 ! R34   R(32,37)                1.319          estimate D2E/DX2                !
 ! R35   R(32,39)                1.0834         estimate D2E/DX2                !
 ! R36   R(33,34)                1.3922         estimate D2E/DX2                !
 ! R37   R(33,53)                1.4947         estimate D2E/DX2                !
 ! R38   R(34,35)                1.3812         estimate D2E/DX2                !
 ! R39   R(34,38)                1.0812         estimate D2E/DX2                !
 ! R40   R(35,36)                1.3957         estimate D2E/DX2                !
 ! R41   R(35,40)                1.0795         estimate D2E/DX2                !
 ! R42   R(36,37)                1.3312         estimate D2E/DX2                !
 ! R43   R(36,41)                1.472          estimate D2E/DX2                !
 ! R44   R(37,84)                2.2724         estimate D2E/DX2                !
 ! R45   R(41,42)                1.3918         estimate D2E/DX2                !
 ! R46   R(41,57)                1.3411         estimate D2E/DX2                !
 ! R47   R(42,44)                1.3816         estimate D2E/DX2                !
 ! R48   R(42,45)                1.0781         estimate D2E/DX2                !
 ! R49   R(43,46)                1.3909         estimate D2E/DX2                !
 ! R50   R(43,47)                1.0832         estimate D2E/DX2                !
 ! R51   R(43,57)                1.3301         estimate D2E/DX2                !
 ! R52   R(44,46)                1.3891         estimate D2E/DX2                !
 ! R53   R(44,48)                1.0806         estimate D2E/DX2                !
 ! R54   R(46,49)                1.4945         estimate D2E/DX2                !
 ! R55   R(49,50)                1.0885         estimate D2E/DX2                !
 ! R56   R(49,51)                1.0871         estimate D2E/DX2                !
 ! R57   R(49,52)                1.09           estimate D2E/DX2                !
 ! R58   R(53,54)                1.0879         estimate D2E/DX2                !
 ! R59   R(53,55)                1.0871         estimate D2E/DX2                !
 ! R60   R(53,56)                1.0907         estimate D2E/DX2                !
 ! R61   R(58,59)                1.3904         estimate D2E/DX2                !
 ! R62   R(58,60)                1.39           estimate D2E/DX2                !
 ! R63   R(59,61)                1.3815         estimate D2E/DX2                !
 ! R64   R(59,62)                1.0807         estimate D2E/DX2                !
 ! R65   R(60,63)                1.3837         estimate D2E/DX2                !
 ! R66   R(60,64)                1.0799         estimate D2E/DX2                !
 ! R67   R(61,65)                1.385          estimate D2E/DX2                !
 ! R68   R(61,66)                1.0802         estimate D2E/DX2                !
 ! R69   R(63,65)                1.3845         estimate D2E/DX2                !
 ! R70   R(63,67)                1.0808         estimate D2E/DX2                !
 ! R71   R(65,68)                1.0806         estimate D2E/DX2                !
 ! R72   R(69,70)                1.3912         estimate D2E/DX2                !
 ! R73   R(69,71)                1.3882         estimate D2E/DX2                !
 ! R74   R(70,72)                1.3821         estimate D2E/DX2                !
 ! R75   R(70,73)                1.081          estimate D2E/DX2                !
 ! R76   R(71,74)                1.3834         estimate D2E/DX2                !
 ! R77   R(71,75)                1.0862         estimate D2E/DX2                !
 ! R78   R(72,76)                1.3866         estimate D2E/DX2                !
 ! R79   R(72,77)                1.0805         estimate D2E/DX2                !
 ! R80   R(74,76)                1.3846         estimate D2E/DX2                !
 ! R81   R(74,78)                1.0804         estimate D2E/DX2                !
 ! R82   R(76,79)                1.0802         estimate D2E/DX2                !
 ! R83   R(80,81)                1.3928         estimate D2E/DX2                !
 ! R84   R(80,82)                1.3928         estimate D2E/DX2                !
 ! R85   R(81,83)                1.3833         estimate D2E/DX2                !
 ! R86   R(81,84)                1.0816         estimate D2E/DX2                !
 ! R87   R(82,85)                1.3822         estimate D2E/DX2                !
 ! R88   R(82,86)                1.0809         estimate D2E/DX2                !
 ! R89   R(83,87)                1.3849         estimate D2E/DX2                !
 ! R90   R(83,88)                1.0807         estimate D2E/DX2                !
 ! R91   R(85,87)                1.3855         estimate D2E/DX2                !
 ! R92   R(85,89)                1.0804         estimate D2E/DX2                !
 ! R93   R(87,90)                1.0806         estimate D2E/DX2                !
 ! A1    A(2,1,4)              107.4889         estimate D2E/DX2                !
 ! A2    A(2,1,8)              108.0698         estimate D2E/DX2                !
 ! A3    A(2,1,13)             112.257          estimate D2E/DX2                !
 ! A4    A(4,1,8)               89.4542         estimate D2E/DX2                !
 ! A5    A(4,1,13)             106.0752         estimate D2E/DX2                !
 ! A6    A(8,1,13)             129.21           estimate D2E/DX2                !
 ! A7    A(1,2,3)              111.4313         estimate D2E/DX2                !
 ! A8    A(1,2,5)              110.4803         estimate D2E/DX2                !
 ! A9    A(1,2,6)              110.71           estimate D2E/DX2                !
 ! A10   A(3,2,5)              107.9136         estimate D2E/DX2                !
 ! A11   A(3,2,6)              108.7285         estimate D2E/DX2                !
 ! A12   A(5,2,6)              107.4442         estimate D2E/DX2                !
 ! A13   A(8,7,10)              92.3179         estimate D2E/DX2                !
 ! A14   A(8,7,11)             158.4007         estimate D2E/DX2                !
 ! A15   A(10,7,11)            101.2257         estimate D2E/DX2                !
 ! A16   A(1,8,9)              114.55           estimate D2E/DX2                !
 ! A17   A(7,10,58)            126.0379         estimate D2E/DX2                !
 ! A18   A(7,10,69)            112.4442         estimate D2E/DX2                !
 ! A19   A(7,10,80)            112.9923         estimate D2E/DX2                !
 ! A20   A(58,10,69)            96.3644         estimate D2E/DX2                !
 ! A21   A(58,10,80)           103.693          estimate D2E/DX2                !
 ! A22   A(69,10,80)           101.7706         estimate D2E/DX2                !
 ! A23   A(1,13,14)            109.9194         estimate D2E/DX2                !
 ! A24   A(1,13,15)            111.4241         estimate D2E/DX2                !
 ! A25   A(1,13,16)            111.5154         estimate D2E/DX2                !
 ! A26   A(14,13,15)           107.9832         estimate D2E/DX2                !
 ! A27   A(14,13,16)           108.3572         estimate D2E/DX2                !
 ! A28   A(15,13,16)           107.5105         estimate D2E/DX2                !
 ! A29   A(13,15,47)           117.3956         estimate D2E/DX2                !
 ! A30   A(13,16,17)           109.8276         estimate D2E/DX2                !
 ! A31   A(13,16,18)           109.4683         estimate D2E/DX2                !
 ! A32   A(13,16,19)           111.6045         estimate D2E/DX2                !
 ! A33   A(17,16,18)           107.565          estimate D2E/DX2                !
 ! A34   A(17,16,19)           109.0546         estimate D2E/DX2                !
 ! A35   A(18,16,19)           109.23           estimate D2E/DX2                !
 ! A36   A(16,19,20)           109.2338         estimate D2E/DX2                !
 ! A37   A(16,19,21)           109.3247         estimate D2E/DX2                !
 ! A38   A(16,19,22)           112.151          estimate D2E/DX2                !
 ! A39   A(20,19,21)           107.4864         estimate D2E/DX2                !
 ! A40   A(20,19,22)           109.2361         estimate D2E/DX2                !
 ! A41   A(21,19,22)           109.2959         estimate D2E/DX2                !
 ! A42   A(19,22,23)           109.3108         estimate D2E/DX2                !
 ! A43   A(19,22,24)           109.2819         estimate D2E/DX2                !
 ! A44   A(19,22,25)           112.1818         estimate D2E/DX2                !
 ! A45   A(23,22,24)           107.52           estimate D2E/DX2                !
 ! A46   A(23,22,25)           109.2289         estimate D2E/DX2                !
 ! A47   A(24,22,25)           109.2047         estimate D2E/DX2                !
 ! A48   A(22,25,26)           109.2489         estimate D2E/DX2                !
 ! A49   A(22,25,27)           109.2269         estimate D2E/DX2                !
 ! A50   A(22,25,28)           111.8978         estimate D2E/DX2                !
 ! A51   A(26,25,27)           107.5613         estimate D2E/DX2                !
 ! A52   A(26,25,28)           109.411          estimate D2E/DX2                !
 ! A53   A(27,25,28)           109.3949         estimate D2E/DX2                !
 ! A54   A(25,28,29)           110.5108         estimate D2E/DX2                !
 ! A55   A(25,28,30)           110.6932         estimate D2E/DX2                !
 ! A56   A(25,28,31)           110.5224         estimate D2E/DX2                !
 ! A57   A(29,28,30)           108.3841         estimate D2E/DX2                !
 ! A58   A(29,28,31)           108.2627         estimate D2E/DX2                !
 ! A59   A(30,28,31)           108.3872         estimate D2E/DX2                !
 ! A60   A(33,32,37)           124.1485         estimate D2E/DX2                !
 ! A61   A(33,32,39)           120.5704         estimate D2E/DX2                !
 ! A62   A(37,32,39)           115.2799         estimate D2E/DX2                !
 ! A63   A(32,33,34)           116.8804         estimate D2E/DX2                !
 ! A64   A(32,33,53)           121.6051         estimate D2E/DX2                !
 ! A65   A(34,33,53)           121.4957         estimate D2E/DX2                !
 ! A66   A(33,34,35)           119.6442         estimate D2E/DX2                !
 ! A67   A(33,34,38)           119.9527         estimate D2E/DX2                !
 ! A68   A(35,34,38)           120.403          estimate D2E/DX2                !
 ! A69   A(34,35,36)           118.6172         estimate D2E/DX2                !
 ! A70   A(34,35,40)           121.5602         estimate D2E/DX2                !
 ! A71   A(36,35,40)           119.8077         estimate D2E/DX2                !
 ! A72   A(35,36,37)           122.0039         estimate D2E/DX2                !
 ! A73   A(35,36,41)           121.0502         estimate D2E/DX2                !
 ! A74   A(37,36,41)           116.912          estimate D2E/DX2                !
 ! A75   A(32,37,36)           118.677          estimate D2E/DX2                !
 ! A76   A(32,37,84)           126.5315         estimate D2E/DX2                !
 ! A77   A(36,37,84)           103.8139         estimate D2E/DX2                !
 ! A78   A(36,41,42)           119.9472         estimate D2E/DX2                !
 ! A79   A(36,41,57)           117.823          estimate D2E/DX2                !
 ! A80   A(42,41,57)           122.2121         estimate D2E/DX2                !
 ! A81   A(41,42,44)           119.3815         estimate D2E/DX2                !
 ! A82   A(41,42,45)           118.9926         estimate D2E/DX2                !
 ! A83   A(44,42,45)           121.6258         estimate D2E/DX2                !
 ! A84   A(46,43,47)           119.2816         estimate D2E/DX2                !
 ! A85   A(46,43,57)           124.4968         estimate D2E/DX2                !
 ! A86   A(47,43,57)           116.2171         estimate D2E/DX2                !
 ! A87   A(42,44,46)           119.0102         estimate D2E/DX2                !
 ! A88   A(42,44,48)           120.6293         estimate D2E/DX2                !
 ! A89   A(46,44,48)           120.3585         estimate D2E/DX2                !
 ! A90   A(43,46,44)           117.319          estimate D2E/DX2                !
 ! A91   A(43,46,49)           120.3596         estimate D2E/DX2                !
 ! A92   A(44,46,49)           122.3144         estimate D2E/DX2                !
 ! A93   A(15,47,43)           109.8853         estimate D2E/DX2                !
 ! A94   A(46,49,50)           110.8227         estimate D2E/DX2                !
 ! A95   A(46,49,51)           111.0294         estimate D2E/DX2                !
 ! A96   A(46,49,52)           109.4538         estimate D2E/DX2                !
 ! A97   A(50,49,51)           109.1103         estimate D2E/DX2                !
 ! A98   A(50,49,52)           107.8063         estimate D2E/DX2                !
 ! A99   A(51,49,52)           108.533          estimate D2E/DX2                !
 ! A100  A(33,53,54)           110.5748         estimate D2E/DX2                !
 ! A101  A(33,53,55)           110.7362         estimate D2E/DX2                !
 ! A102  A(33,53,56)           110.0058         estimate D2E/DX2                !
 ! A103  A(54,53,55)           109.1747         estimate D2E/DX2                !
 ! A104  A(54,53,56)           107.8855         estimate D2E/DX2                !
 ! A105  A(55,53,56)           108.3888         estimate D2E/DX2                !
 ! A106  A(41,57,43)           117.5224         estimate D2E/DX2                !
 ! A107  A(10,58,59)           116.4661         estimate D2E/DX2                !
 ! A108  A(10,58,60)           124.2599         estimate D2E/DX2                !
 ! A109  A(59,58,60)           119.0638         estimate D2E/DX2                !
 ! A110  A(58,59,61)           120.7869         estimate D2E/DX2                !
 ! A111  A(58,59,62)           118.9569         estimate D2E/DX2                !
 ! A112  A(61,59,62)           120.2556         estimate D2E/DX2                !
 ! A113  A(58,60,63)           120.0835         estimate D2E/DX2                !
 ! A114  A(58,60,64)           120.435          estimate D2E/DX2                !
 ! A115  A(63,60,64)           119.4806         estimate D2E/DX2                !
 ! A116  A(59,61,65)           119.8528         estimate D2E/DX2                !
 ! A117  A(59,61,66)           119.9866         estimate D2E/DX2                !
 ! A118  A(65,61,66)           120.1606         estimate D2E/DX2                !
 ! A119  A(60,63,65)           120.4702         estimate D2E/DX2                !
 ! A120  A(60,63,67)           119.5874         estimate D2E/DX2                !
 ! A121  A(65,63,67)           119.9414         estimate D2E/DX2                !
 ! A122  A(61,65,63)           119.7307         estimate D2E/DX2                !
 ! A123  A(61,65,68)           120.1713         estimate D2E/DX2                !
 ! A124  A(63,65,68)           120.0968         estimate D2E/DX2                !
 ! A125  A(10,69,70)           121.8089         estimate D2E/DX2                !
 ! A126  A(10,69,71)           118.5657         estimate D2E/DX2                !
 ! A127  A(70,69,71)           119.6059         estimate D2E/DX2                !
 ! A128  A(69,70,72)           119.9135         estimate D2E/DX2                !
 ! A129  A(69,70,73)           119.8599         estimate D2E/DX2                !
 ! A130  A(72,70,73)           120.2252         estimate D2E/DX2                !
 ! A131  A(69,71,74)           120.3916         estimate D2E/DX2                !
 ! A132  A(69,71,75)           118.4554         estimate D2E/DX2                !
 ! A133  A(74,71,75)           121.1515         estimate D2E/DX2                !
 ! A134  A(70,72,76)           120.2412         estimate D2E/DX2                !
 ! A135  A(70,72,77)           119.8349         estimate D2E/DX2                !
 ! A136  A(76,72,77)           119.9238         estimate D2E/DX2                !
 ! A137  A(71,74,76)           119.8181         estimate D2E/DX2                !
 ! A138  A(71,74,78)           120.0665         estimate D2E/DX2                !
 ! A139  A(76,74,78)           120.1152         estimate D2E/DX2                !
 ! A140  A(72,76,74)           120.0235         estimate D2E/DX2                !
 ! A141  A(72,76,79)           119.9126         estimate D2E/DX2                !
 ! A142  A(74,76,79)           120.0639         estimate D2E/DX2                !
 ! A143  A(10,80,81)           120.3321         estimate D2E/DX2                !
 ! A144  A(10,80,82)           119.7647         estimate D2E/DX2                !
 ! A145  A(81,80,82)           119.4839         estimate D2E/DX2                !
 ! A146  A(80,81,83)           119.9851         estimate D2E/DX2                !
 ! A147  A(80,81,84)           119.5564         estimate D2E/DX2                !
 ! A148  A(83,81,84)           120.4578         estimate D2E/DX2                !
 ! A149  A(80,82,85)           120.1601         estimate D2E/DX2                !
 ! A150  A(80,82,86)           119.7455         estimate D2E/DX2                !
 ! A151  A(85,82,86)           120.0941         estimate D2E/DX2                !
 ! A152  A(81,83,87)           120.3156         estimate D2E/DX2                !
 ! A153  A(81,83,88)           119.701          estimate D2E/DX2                !
 ! A154  A(87,83,88)           119.9825         estimate D2E/DX2                !
 ! A155  A(37,84,81)           154.8731         estimate D2E/DX2                !
 ! A156  A(82,85,87)           120.1839         estimate D2E/DX2                !
 ! A157  A(82,85,89)           119.7482         estimate D2E/DX2                !
 ! A158  A(87,85,89)           120.0676         estimate D2E/DX2                !
 ! A159  A(83,87,85)           119.8535         estimate D2E/DX2                !
 ! A160  A(83,87,90)           120.1255         estimate D2E/DX2                !
 ! A161  A(85,87,90)           120.0206         estimate D2E/DX2                !
 ! A162  L(7,8,9,1,-1)         194.0492         estimate D2E/DX2                !
 ! A163  L(7,11,12,14,-1)      174.5769         estimate D2E/DX2                !
 ! A164  L(7,8,9,1,-2)         183.6649         estimate D2E/DX2                !
 ! A165  L(7,11,12,14,-2)      171.1652         estimate D2E/DX2                !
 ! D1    D(4,1,2,3)           -174.0369         estimate D2E/DX2                !
 ! D2    D(4,1,2,5)            -54.0813         estimate D2E/DX2                !
 ! D3    D(4,1,2,6)             64.8209         estimate D2E/DX2                !
 ! D4    D(8,1,2,3)             90.6674         estimate D2E/DX2                !
 ! D5    D(8,1,2,5)           -149.377          estimate D2E/DX2                !
 ! D6    D(8,1,2,6)            -30.4748         estimate D2E/DX2                !
 ! D7    D(13,1,2,3)           -57.7644         estimate D2E/DX2                !
 ! D8    D(13,1,2,5)            62.1912         estimate D2E/DX2                !
 ! D9    D(13,1,2,6)          -178.9066         estimate D2E/DX2                !
 ! D10   D(2,1,8,7)            -94.9466         estimate D2E/DX2                !
 ! D11   D(2,1,8,9)             81.3885         estimate D2E/DX2                !
 ! D12   D(4,1,8,7)            156.8122         estimate D2E/DX2                !
 ! D13   D(4,1,8,9)            -26.8527         estimate D2E/DX2                !
 ! D14   D(13,1,8,7)            46.3489         estimate D2E/DX2                !
 ! D15   D(13,1,8,9)          -137.316          estimate D2E/DX2                !
 ! D16   D(2,1,13,14)           40.8923         estimate D2E/DX2                !
 ! D17   D(2,1,13,15)          160.5587         estimate D2E/DX2                !
 ! D18   D(2,1,13,16)          -79.3017         estimate D2E/DX2                !
 ! D19   D(4,1,13,14)          158.0126         estimate D2E/DX2                !
 ! D20   D(4,1,13,15)          -82.321          estimate D2E/DX2                !
 ! D21   D(4,1,13,16)           37.8186         estimate D2E/DX2                !
 ! D22   D(8,1,13,14)          -99.1427         estimate D2E/DX2                !
 ! D23   D(8,1,13,15)           20.5238         estimate D2E/DX2                !
 ! D24   D(8,1,13,16)          140.6634         estimate D2E/DX2                !
 ! D25   D(10,7,8,1)           155.9753         estimate D2E/DX2                !
 ! D26   D(11,7,8,1)            26.8134         estimate D2E/DX2                !
 ! D27   D(8,7,10,58)          175.2135         estimate D2E/DX2                !
 ! D28   D(8,7,10,69)          -68.1164         estimate D2E/DX2                !
 ! D29   D(8,7,10,80)           46.405          estimate D2E/DX2                !
 ! D30   D(11,7,10,58)         -21.7038         estimate D2E/DX2                !
 ! D31   D(11,7,10,69)          94.9663         estimate D2E/DX2                !
 ! D32   D(11,7,10,80)        -150.5123         estimate D2E/DX2                !
 ! D33   D(7,10,58,59)          37.1695         estimate D2E/DX2                !
 ! D34   D(7,10,58,60)        -148.1646         estimate D2E/DX2                !
 ! D35   D(69,10,58,59)        -86.625          estimate D2E/DX2                !
 ! D36   D(69,10,58,60)         88.0409         estimate D2E/DX2                !
 ! D37   D(80,10,58,59)        169.5806         estimate D2E/DX2                !
 ! D38   D(80,10,58,60)        -15.7535         estimate D2E/DX2                !
 ! D39   D(7,10,69,70)         167.6016         estimate D2E/DX2                !
 ! D40   D(7,10,69,71)         -14.0098         estimate D2E/DX2                !
 ! D41   D(58,10,69,70)        -59.0402         estimate D2E/DX2                !
 ! D42   D(58,10,69,71)        119.3484         estimate D2E/DX2                !
 ! D43   D(80,10,69,70)         46.4186         estimate D2E/DX2                !
 ! D44   D(80,10,69,71)       -135.1928         estimate D2E/DX2                !
 ! D45   D(7,10,80,81)          90.4331         estimate D2E/DX2                !
 ! D46   D(7,10,80,82)         -82.098          estimate D2E/DX2                !
 ! D47   D(58,10,80,81)        -49.1343         estimate D2E/DX2                !
 ! D48   D(58,10,80,82)        138.3345         estimate D2E/DX2                !
 ! D49   D(69,10,80,81)       -148.766          estimate D2E/DX2                !
 ! D50   D(69,10,80,82)         38.7029         estimate D2E/DX2                !
 ! D51   D(1,13,15,47)          28.7257         estimate D2E/DX2                !
 ! D52   D(14,13,15,47)        149.5329         estimate D2E/DX2                !
 ! D53   D(16,13,15,47)        -93.7481         estimate D2E/DX2                !
 ! D54   D(1,13,16,17)          58.6171         estimate D2E/DX2                !
 ! D55   D(1,13,16,18)         -59.2692         estimate D2E/DX2                !
 ! D56   D(1,13,16,19)         179.6852         estimate D2E/DX2                !
 ! D57   D(14,13,16,17)        -62.4917         estimate D2E/DX2                !
 ! D58   D(14,13,16,18)        179.622          estimate D2E/DX2                !
 ! D59   D(14,13,16,19)         58.5763         estimate D2E/DX2                !
 ! D60   D(15,13,16,17)       -178.9655         estimate D2E/DX2                !
 ! D61   D(15,13,16,18)         63.1481         estimate D2E/DX2                !
 ! D62   D(15,13,16,19)        -57.8975         estimate D2E/DX2                !
 ! D63   D(13,15,47,43)       -132.9895         estimate D2E/DX2                !
 ! D64   D(13,16,19,20)        -58.6549         estimate D2E/DX2                !
 ! D65   D(13,16,19,21)         58.7061         estimate D2E/DX2                !
 ! D66   D(13,16,19,22)       -179.9053         estimate D2E/DX2                !
 ! D67   D(17,16,19,20)         62.862          estimate D2E/DX2                !
 ! D68   D(17,16,19,21)       -179.777          estimate D2E/DX2                !
 ! D69   D(17,16,19,22)        -58.3884         estimate D2E/DX2                !
 ! D70   D(18,16,19,20)       -179.8392         estimate D2E/DX2                !
 ! D71   D(18,16,19,21)        -62.4782         estimate D2E/DX2                !
 ! D72   D(18,16,19,22)         58.9104         estimate D2E/DX2                !
 ! D73   D(16,19,22,23)        -58.903          estimate D2E/DX2                !
 ! D74   D(16,19,22,24)         58.5182         estimate D2E/DX2                !
 ! D75   D(16,19,22,25)        179.7823         estimate D2E/DX2                !
 ! D76   D(20,19,22,23)        179.8479         estimate D2E/DX2                !
 ! D77   D(20,19,22,24)        -62.7309         estimate D2E/DX2                !
 ! D78   D(20,19,22,25)         58.5333         estimate D2E/DX2                !
 ! D79   D(21,19,22,23)         62.5022         estimate D2E/DX2                !
 ! D80   D(21,19,22,24)        179.9234         estimate D2E/DX2                !
 ! D81   D(21,19,22,25)        -58.8125         estimate D2E/DX2                !
 ! D82   D(19,22,25,26)         58.7259         estimate D2E/DX2                !
 ! D83   D(19,22,25,27)        -58.6778         estimate D2E/DX2                !
 ! D84   D(19,22,25,28)       -179.9583         estimate D2E/DX2                !
 ! D85   D(23,22,25,26)        -62.6358         estimate D2E/DX2                !
 ! D86   D(23,22,25,27)        179.9605         estimate D2E/DX2                !
 ! D87   D(23,22,25,28)         58.68           estimate D2E/DX2                !
 ! D88   D(24,22,25,26)       -179.9656         estimate D2E/DX2                !
 ! D89   D(24,22,25,27)         62.6306         estimate D2E/DX2                !
 ! D90   D(24,22,25,28)        -58.6499         estimate D2E/DX2                !
 ! D91   D(22,25,28,29)         59.8664         estimate D2E/DX2                !
 ! D92   D(22,25,28,30)        179.9501         estimate D2E/DX2                !
 ! D93   D(22,25,28,31)        -59.9547         estimate D2E/DX2                !
 ! D94   D(26,25,28,29)       -178.9114         estimate D2E/DX2                !
 ! D95   D(26,25,28,30)        -58.8278         estimate D2E/DX2                !
 ! D96   D(26,25,28,31)         61.2674         estimate D2E/DX2                !
 ! D97   D(27,25,28,29)        -61.317          estimate D2E/DX2                !
 ! D98   D(27,25,28,30)         58.7667         estimate D2E/DX2                !
 ! D99   D(27,25,28,31)        178.8619         estimate D2E/DX2                !
 ! D100  D(37,32,33,34)         -0.7081         estimate D2E/DX2                !
 ! D101  D(37,32,33,53)       -179.1536         estimate D2E/DX2                !
 ! D102  D(39,32,33,34)        179.7049         estimate D2E/DX2                !
 ! D103  D(39,32,33,53)          1.2594         estimate D2E/DX2                !
 ! D104  D(33,32,37,36)         -0.7676         estimate D2E/DX2                !
 ! D105  D(33,32,37,84)       -138.8316         estimate D2E/DX2                !
 ! D106  D(39,32,37,36)        178.8392         estimate D2E/DX2                !
 ! D107  D(39,32,37,84)         40.7752         estimate D2E/DX2                !
 ! D108  D(32,33,34,35)          1.0965         estimate D2E/DX2                !
 ! D109  D(32,33,34,38)       -179.0309         estimate D2E/DX2                !
 ! D110  D(53,33,34,35)        179.5439         estimate D2E/DX2                !
 ! D111  D(53,33,34,38)         -0.5835         estimate D2E/DX2                !
 ! D112  D(32,33,53,54)       -141.9894         estimate D2E/DX2                !
 ! D113  D(32,33,53,55)        -20.8421         estimate D2E/DX2                !
 ! D114  D(32,33,53,56)         98.9475         estimate D2E/DX2                !
 ! D115  D(34,33,53,54)         39.6367         estimate D2E/DX2                !
 ! D116  D(34,33,53,55)        160.7841         estimate D2E/DX2                !
 ! D117  D(34,33,53,56)        -79.4264         estimate D2E/DX2                !
 ! D118  D(33,34,35,36)         -0.0897         estimate D2E/DX2                !
 ! D119  D(33,34,35,40)       -178.6771         estimate D2E/DX2                !
 ! D120  D(38,34,35,36)       -179.9617         estimate D2E/DX2                !
 ! D121  D(38,34,35,40)          1.4509         estimate D2E/DX2                !
 ! D122  D(34,35,36,37)         -1.4512         estimate D2E/DX2                !
 ! D123  D(34,35,36,41)       -179.2676         estimate D2E/DX2                !
 ! D124  D(40,35,36,37)        177.1615         estimate D2E/DX2                !
 ! D125  D(40,35,36,41)         -0.6549         estimate D2E/DX2                !
 ! D126  D(35,36,37,32)          1.867          estimate D2E/DX2                !
 ! D127  D(35,36,37,84)        148.2943         estimate D2E/DX2                !
 ! D128  D(41,36,37,32)        179.7691         estimate D2E/DX2                !
 ! D129  D(41,36,37,84)        -33.8035         estimate D2E/DX2                !
 ! D130  D(35,36,41,42)        144.7596         estimate D2E/DX2                !
 ! D131  D(35,36,41,57)        -33.7445         estimate D2E/DX2                !
 ! D132  D(37,36,41,42)        -33.1639         estimate D2E/DX2                !
 ! D133  D(37,36,41,57)        148.332          estimate D2E/DX2                !
 ! D134  D(32,37,84,81)        138.9274         estimate D2E/DX2                !
 ! D135  D(36,37,84,81)         -3.9307         estimate D2E/DX2                !
 ! D136  D(36,41,42,44)       -179.8921         estimate D2E/DX2                !
 ! D137  D(36,41,42,45)          0.2204         estimate D2E/DX2                !
 ! D138  D(57,41,42,44)         -1.4557         estimate D2E/DX2                !
 ! D139  D(57,41,42,45)        178.6567         estimate D2E/DX2                !
 ! D140  D(36,41,57,43)        177.904          estimate D2E/DX2                !
 ! D141  D(42,41,57,43)         -0.564          estimate D2E/DX2                !
 ! D142  D(41,42,44,46)          1.6726         estimate D2E/DX2                !
 ! D143  D(41,42,44,48)       -178.8371         estimate D2E/DX2                !
 ! D144  D(45,42,44,46)       -178.4429         estimate D2E/DX2                !
 ! D145  D(45,42,44,48)          1.0473         estimate D2E/DX2                !
 ! D146  D(47,43,46,44)        177.0077         estimate D2E/DX2                !
 ! D147  D(47,43,46,49)         -3.9315         estimate D2E/DX2                !
 ! D148  D(57,43,46,44)         -2.1819         estimate D2E/DX2                !
 ! D149  D(57,43,46,49)        176.8789         estimate D2E/DX2                !
 ! D150  D(46,43,47,15)       -166.7265         estimate D2E/DX2                !
 ! D151  D(57,43,47,15)         12.5291         estimate D2E/DX2                !
 ! D152  D(46,43,57,41)          2.4442         estimate D2E/DX2                !
 ! D153  D(47,43,57,41)       -176.7679         estimate D2E/DX2                !
 ! D154  D(42,44,46,43)          0.0173         estimate D2E/DX2                !
 ! D155  D(42,44,46,49)       -179.0238         estimate D2E/DX2                !
 ! D156  D(48,44,46,43)       -179.4744         estimate D2E/DX2                !
 ! D157  D(48,44,46,49)          1.4846         estimate D2E/DX2                !
 ! D158  D(43,46,49,50)         47.7319         estimate D2E/DX2                !
 ! D159  D(43,46,49,51)        169.1631         estimate D2E/DX2                !
 ! D160  D(43,46,49,52)        -71.0391         estimate D2E/DX2                !
 ! D161  D(44,46,49,50)       -133.2555         estimate D2E/DX2                !
 ! D162  D(44,46,49,51)        -11.8243         estimate D2E/DX2                !
 ! D163  D(44,46,49,52)        107.9735         estimate D2E/DX2                !
 ! D164  D(10,58,59,61)        175.712          estimate D2E/DX2                !
 ! D165  D(10,58,59,62)         -4.0125         estimate D2E/DX2                !
 ! D166  D(60,58,59,61)          0.755          estimate D2E/DX2                !
 ! D167  D(60,58,59,62)       -178.9696         estimate D2E/DX2                !
 ! D168  D(10,58,60,63)       -175.8038         estimate D2E/DX2                !
 ! D169  D(10,58,60,64)          4.5493         estimate D2E/DX2                !
 ! D170  D(59,58,60,63)         -1.2672         estimate D2E/DX2                !
 ! D171  D(59,58,60,64)        179.0859         estimate D2E/DX2                !
 ! D172  D(58,59,61,65)          0.2127         estimate D2E/DX2                !
 ! D173  D(58,59,61,66)       -179.6967         estimate D2E/DX2                !
 ! D174  D(62,59,61,65)        179.9337         estimate D2E/DX2                !
 ! D175  D(62,59,61,66)          0.0243         estimate D2E/DX2                !
 ! D176  D(58,60,63,65)          0.8231         estimate D2E/DX2                !
 ! D177  D(58,60,63,67)       -179.5379         estimate D2E/DX2                !
 ! D178  D(64,60,63,65)       -179.5267         estimate D2E/DX2                !
 ! D179  D(64,60,63,67)          0.1124         estimate D2E/DX2                !
 ! D180  D(59,61,65,63)         -0.6709         estimate D2E/DX2                !
 ! D181  D(59,61,65,68)        179.7309         estimate D2E/DX2                !
 ! D182  D(66,61,65,63)        179.2384         estimate D2E/DX2                !
 ! D183  D(66,61,65,68)         -0.3599         estimate D2E/DX2                !
 ! D184  D(60,63,65,61)          0.1552         estimate D2E/DX2                !
 ! D185  D(60,63,65,68)        179.7537         estimate D2E/DX2                !
 ! D186  D(67,63,65,61)       -179.4827         estimate D2E/DX2                !
 ! D187  D(67,63,65,68)          0.1159         estimate D2E/DX2                !
 ! D188  D(10,69,70,72)        179.2995         estimate D2E/DX2                !
 ! D189  D(10,69,70,73)         -1.1197         estimate D2E/DX2                !
 ! D190  D(71,69,70,72)          0.9273         estimate D2E/DX2                !
 ! D191  D(71,69,70,73)       -179.492          estimate D2E/DX2                !
 ! D192  D(10,69,71,74)       -179.1712         estimate D2E/DX2                !
 ! D193  D(10,69,71,75)          1.2613         estimate D2E/DX2                !
 ! D194  D(70,69,71,74)         -0.7462         estimate D2E/DX2                !
 ! D195  D(70,69,71,75)        179.6863         estimate D2E/DX2                !
 ! D196  D(69,70,72,76)         -0.4888         estimate D2E/DX2                !
 ! D197  D(69,70,72,77)        179.4751         estimate D2E/DX2                !
 ! D198  D(73,70,72,76)        179.932          estimate D2E/DX2                !
 ! D199  D(73,70,72,77)         -0.1041         estimate D2E/DX2                !
 ! D200  D(69,71,74,76)          0.122          estimate D2E/DX2                !
 ! D201  D(69,71,74,78)       -179.7053         estimate D2E/DX2                !
 ! D202  D(75,71,74,76)        179.6777         estimate D2E/DX2                !
 ! D203  D(75,71,74,78)         -0.1496         estimate D2E/DX2                !
 ! D204  D(70,72,76,74)         -0.1388         estimate D2E/DX2                !
 ! D205  D(70,72,76,79)        179.8555         estimate D2E/DX2                !
 ! D206  D(77,72,76,74)        179.8973         estimate D2E/DX2                !
 ! D207  D(77,72,76,79)         -0.1084         estimate D2E/DX2                !
 ! D208  D(71,74,76,72)          0.3229         estimate D2E/DX2                !
 ! D209  D(71,74,76,79)       -179.6714         estimate D2E/DX2                !
 ! D210  D(78,74,76,72)       -179.8499         estimate D2E/DX2                !
 ! D211  D(78,74,76,79)          0.1557         estimate D2E/DX2                !
 ! D212  D(10,80,81,83)       -174.2013         estimate D2E/DX2                !
 ! D213  D(10,80,81,84)          5.5037         estimate D2E/DX2                !
 ! D214  D(82,80,81,83)         -1.6492         estimate D2E/DX2                !
 ! D215  D(82,80,81,84)        178.0558         estimate D2E/DX2                !
 ! D216  D(10,80,82,85)        173.707          estimate D2E/DX2                !
 ! D217  D(10,80,82,86)         -6.0731         estimate D2E/DX2                !
 ! D218  D(81,80,82,85)          1.1122         estimate D2E/DX2                !
 ! D219  D(81,80,82,86)       -178.6679         estimate D2E/DX2                !
 ! D220  D(80,81,83,87)          1.1744         estimate D2E/DX2                !
 ! D221  D(80,81,83,88)       -179.1681         estimate D2E/DX2                !
 ! D222  D(84,81,83,87)       -178.528          estimate D2E/DX2                !
 ! D223  D(84,81,83,88)          1.1296         estimate D2E/DX2                !
 ! D224  D(80,81,84,37)        -60.7436         estimate D2E/DX2                !
 ! D225  D(83,81,84,37)        118.96           estimate D2E/DX2                !
 ! D226  D(80,82,85,87)         -0.0936         estimate D2E/DX2                !
 ! D227  D(80,82,85,89)       -179.883          estimate D2E/DX2                !
 ! D228  D(86,82,85,87)        179.6857         estimate D2E/DX2                !
 ! D229  D(86,82,85,89)         -0.1036         estimate D2E/DX2                !
 ! D230  D(81,83,87,85)         -0.1482         estimate D2E/DX2                !
 ! D231  D(81,83,87,90)        179.6047         estimate D2E/DX2                !
 ! D232  D(88,83,87,85)       -179.8047         estimate D2E/DX2                !
 ! D233  D(88,83,87,90)         -0.0518         estimate D2E/DX2                !
 ! D234  D(82,85,87,83)         -0.394          estimate D2E/DX2                !
 ! D235  D(82,85,87,90)        179.8528         estimate D2E/DX2                !
 ! D236  D(89,85,87,83)        179.3946         estimate D2E/DX2                !
 ! D237  D(89,85,87,90)         -0.3585         estimate D2E/DX2                !
 --------------------------------------------------------------------------------
 Trust Radius=3.00D-01 FncErr=1.00D-07 GrdErr=1.00D-07 EigMax=2.50D+02 EigMin=1.00D-04
 Number of steps in this run=    540 maximum allowed number of steps=    540.
 GradGradGradGradGradGradGradGradGradGradGradGradGradGradGradGradGradGrad

 Stoichiometry    C40H44N2O2PRh
 Framework group  C1[X(C40H44N2O2PRh)]
 Deg. of freedom   264
 Full point group                 C1      NOp   1
 Largest Abelian subgroup         C1      NOp   1
 Largest concise Abelian subgroup C1      NOp   1
                         Standard orientation:                         
 ---------------------------------------------------------------------
 Center     Atomic      Atomic             Coordinates (Angstroms)
 Number     Number       Type             X           Y           Z
 ---------------------------------------------------------------------
      1          6           0        2.581329   -1.663832   -0.848274
      2          6           0        2.464290   -2.240881   -2.259916
      3          1           0        2.081379   -1.499773   -2.963031
      4          1           0        3.069430   -2.421156   -0.221849
      5          1           0        3.441635   -2.572252   -2.619830
      6          1           0        1.802361   -3.106269   -2.268764
      7         45           0        0.584095   -0.301560   -0.529008
      8          6           0        0.883849   -2.005191    0.094589
      9          8           0        0.784267   -3.081823    0.542181
     10         15           0       -1.693357   -0.575977   -0.457662
     11          6           0        0.735823    1.195393   -1.639845
     12          8           0        0.891653    1.984442   -2.469286
     13          6           0        3.491139   -0.417858   -0.799574
     14          1           0        3.300606    0.217409   -1.670651
     15          1           0        3.305835    0.177563    0.099901
     16          6           0        4.976496   -0.805060   -0.799244
     17          1           0        5.207692   -1.387118   -1.693631
     18          1           0        5.188592   -1.435445    0.068689
     19          6           0        5.878337    0.426125   -0.758901
     20          1           0        5.664414    1.057589   -1.624748
     21          1           0        5.653206    1.010262    0.137322
     22          6           0        7.359208    0.055203   -0.760496
     23          1           0        7.575085   -0.574190    0.106550
     24          1           0        7.583712   -0.529864   -1.655784
     25          6           0        8.261748    1.286053   -0.725531
     26          1           0        8.038291    1.871269    0.169712
     27          1           0        8.046417    1.914837   -1.592642
     28          6           0        9.737899    0.908557   -0.728341
     29          1           0        9.984477    0.340772   -1.623067
     30          1           0       10.362326    1.798809   -0.704066
     31          1           0        9.977078    0.297802    0.139767
     32          6           0       -2.258547    3.563303    0.917151
     33          6           0       -1.566195    4.350416    0.004074
     34          6           0       -0.208226    4.086448   -0.152127
     35          6           0        0.376591    3.064637    0.570094
     36          6           0       -0.419816    2.322781    1.443823
     37          7           0       -1.712014    2.589920    1.619793
     38          1           0        0.381562    4.679097   -0.837682
     39          1           0       -3.316605    3.720486    1.089326
     40          1           0        1.430789    2.846810    0.488835
     41          6           0        0.151139    1.232587    2.251406
     42          6           0       -0.325668    0.997618    3.537661
     43          6           0        1.689019   -0.442101    2.467398
     44          6           0        0.220202   -0.027336    4.286231
     45          1           0       -1.115384    1.621386    3.924256
     46          6           0        1.258108   -0.776637    3.746809
     47          1           0        2.528346   -0.973249    2.035256
     48          1           0       -0.147441   -0.239488    5.279931
     49          6           0        1.888027   -1.914815    4.482515
     50          1           0        2.973691   -1.852642    4.435138
     51          1           0        1.577291   -1.925689    5.524170
     52          1           0        1.587601   -2.855758    4.021501
     53          6           0       -2.239187    5.452312   -0.748977
     54          1           0       -1.866250    5.501064   -1.769782
     55          1           0       -3.315800    5.303244   -0.768912
     56          1           0       -2.033338    6.410863   -0.271006
     57          7           0        1.148804    0.513631    1.716395
     58          6           0       -2.947006    0.714548   -0.811225
     59          6           0       -2.645776    1.607529   -1.833565
     60          6           0       -4.195153    0.780510   -0.202990
     61          6           0       -3.563155    2.559785   -2.233838
     62          1           0       -1.681183    1.543775   -2.316636
     63          6           0       -5.109081    1.741650   -0.597535
     64          1           0       -4.457879    0.088256    0.583144
     65          6           0       -4.797427    2.633161   -1.609886
     66          1           0       -3.317397    3.243963   -3.032853
     67          1           0       -6.074475    1.790469   -0.113990
     68          1           0       -5.517209    3.378793   -1.915913
     69          6           0       -2.291033   -1.784427   -1.696714
     70          6           0       -3.586547   -2.290162   -1.662171
     71          6           0       -1.429473   -2.174291   -2.713042
     72          6           0       -4.001135   -3.189926   -2.625909
     73          1           0       -4.263452   -1.983010   -0.877346
     74          6           0       -1.847498   -3.072079   -3.679016
     75          1           0       -0.423793   -1.763933   -2.724886
     76          6           0       -3.133577   -3.583070   -3.633587
     77          1           0       -5.004937   -3.588433   -2.592958
     78          1           0       -1.171075   -3.375534   -4.464907
     79          1           0       -3.462422   -4.288402   -4.382775
     80          6           0       -2.270887   -1.322843    1.097889
     81          6           0       -2.619521   -0.516246    2.178519
     82          6           0       -2.217172   -2.704730    1.263159
     83          6           0       -2.942214   -1.091153    3.394552
     84          1           0       -2.630904    0.558800    2.060084
     85          6           0       -2.530256   -3.270711    2.484656
     86          1           0       -1.926159   -3.333151    0.433317
     87          6           0       -2.897235   -2.466446    3.551489
     88          1           0       -3.225123   -0.461648    4.226183
     89          1           0       -2.484546   -4.343295    2.605986
     90          1           0       -3.143768   -2.911894    4.504623
 ---------------------------------------------------------------------
 Rotational constants (GHZ):           0.0852241           0.0503261           0.0483290
 Standard basis: STO-3G (5D, 7F)
 There are   302 symmetry adapted cartesian basis functions of A   symmetry.
 There are   300 symmetry adapted basis functions of A   symmetry.
   300 basis functions,   906 primitive gaussians,   302 cartesian basis functions
   187 alpha electrons      187 beta electrons
       nuclear repulsion energy      7842.1401173719 Hartrees.



 Warning!  P  atom   10 may be hypervalent but has no d functions.



 NAtoms=   90 NActive=   90 NUniq=   90 SFac= 1.00D+00 NAtFMM=   60 NAOKFM=T Big=T
 Integral buffers will be    131072 words long.
 Raffenetti 1 integral format.
 Two-electron integral symmetry is turned on.
 External calculation of energy and first derivatives.
 Running external command "./xtb.sh R"
         input file       "/usr/local/bin/g16/scratch/Gau-538711.EIn"
         output file      "/usr/local/bin/g16/scratch/Gau-538711.EOu"
         message file     "/usr/local/bin/g16/scratch/Gau-538711.EMs"
         fchk file        "/usr/local/bin/g16/scratch/Gau-538711.EFC"
         mat. el file     "/usr/local/bin/g16/scratch/Gau-538711.EUF"
Using prefix: Gau-538711
Generating Gau-538711_mol.tmp
Generating Gau-538711_mol.xyz via genxyz
Running: xtb mol.xyz --chrg 0 --uhf 0 --grad --gfn 2 > xtbout
xtb running finished!
Warning: XTB may not have terminated normally, check Gau-538711_xtbout
Extracting data from xtb outputs via extderi
 Recovered energy= -128.620288814     dipole=      0.000000000000      0.000000000000      0.000000000000
 Energy=    -128.620289     NIter=   0.
 Dipole moment=       0.000000       0.000000       0.000000
 ***** Axes restored to original set *****
 -------------------------------------------------------------------
 Center     Atomic                   Forces (Hartrees/Bohr)
 Number     Number              X              Y              Z
 -------------------------------------------------------------------
      1        6          -0.000000000   -0.000000000   -0.000000000
      2        6           0.000001780    0.000041461   -0.000031354
      3        1           0.000008114    0.000002395    0.000000137
      4        1           0.000022113    0.000006907   -0.000018579
      5        1          -0.000002969   -0.000013059    0.000004397
      6        1          -0.000008036    0.000002643    0.000010008
      7       45          -0.000000000   -0.000000000   -0.000000000
      8        6          -0.000000000   -0.000000000   -0.000000000
      9        8           0.000029645   -0.000022659    0.000070297
     10       15          -0.000004577    0.000104372   -0.000027903
     11        6           0.000078544    0.000016402    0.000192624
     12        8           0.000040371    0.000063696   -0.000001896
     13        6           0.000050000   -0.000010174    0.000018429
     14        1          -0.000007956   -0.000010559   -0.000009232
     15        1           0.000022455   -0.000023275   -0.000003796
     16        6           0.000011385    0.000001632    0.000002415
     17        1          -0.000000721    0.000001628    0.000000719
     18        1          -0.000003966   -0.000008361   -0.000006828
     19        6          -0.000020059    0.000036470    0.000001806
     20        1           0.000007785   -0.000013345   -0.000008086
     21        1           0.000006123   -0.000010838    0.000007375
     22        6           0.000013535   -0.000014845    0.000006742
     23        1          -0.000005648   -0.000002150   -0.000002450
     24        1          -0.000002011    0.000003198    0.000000125
     25        6          -0.000016219    0.000022415    0.000001954
     26        1           0.000006572   -0.000006592    0.000005706
     27        1           0.000006687   -0.000007524   -0.000005181
     28        6           0.000013982   -0.000003828    0.000003768
     29        1          -0.000005532    0.000001342    0.000001732
     30        1          -0.000004611   -0.000000989    0.000003368
     31        1          -0.000006018   -0.000002321   -0.000004054
     32        6          -0.000055105   -0.000125796   -0.000191888
     33        6          -0.000040802    0.000023609    0.000068385
     34        6           0.000029844   -0.000002036   -0.000010712
     35        6           0.000000605    0.000019436    0.000012876
     36        6           0.000003379   -0.000029436   -0.000010298
     37        7          -0.000002262   -0.000033032   -0.000050145
     38        1          -0.000007398   -0.000006870   -0.000007221
     39        1           0.000093664    0.000078412    0.000137390
     40        1          -0.000001311   -0.000002155   -0.000004734
     41        6           0.000003505    0.000060316    0.000061696
     42        6           0.000028884    0.000014292    0.000035251
     43        6          -0.000010164    0.000010665    0.000011976
     44        6          -0.000031339    0.000006213    0.000012073
     45        1          -0.000000158   -0.000005566    0.000004991
     46        6           0.000044187   -0.000020124   -0.000043465
     47        1           0.000003754    0.000018687    0.000011748
     48        1           0.000001491   -0.000003249   -0.000004165
     49        6          -0.000059192   -0.000035368    0.000006361
     50        1           0.000010013    0.000008629    0.000002066
     51        1           0.000016746    0.000014398   -0.000001823
     52        1           0.000004537    0.000012836    0.000010449
     53        6           0.000001533   -0.000021492   -0.000041900
     54        1           0.000007899    0.000005395    0.000010897
     55        1           0.000004481    0.000003785    0.000009047
     56        1           0.000007180   -0.000002301   -0.000001166
     57        7          -0.000023970   -0.000024118   -0.000052696
     58        6          -0.000105935   -0.000073678   -0.000020279
     59        6           0.000009493    0.000003937    0.000006691
     60        6           0.000011730    0.000012026   -0.000009353
     61        6           0.000006325    0.000006633   -0.000003023
     62        1          -0.000017339   -0.000018305   -0.000023157
     63        6          -0.000000315    0.000000149    0.000018219
     64        1          -0.000014837   -0.000026714   -0.000081812
     65        6          -0.000019056    0.000011877   -0.000018998
     66        1          -0.000008220   -0.000010821    0.000008948
     67        1           0.000022707    0.000002761    0.000007526
     68        1           0.000023230    0.000006264    0.000030800
     69        6          -0.000003613   -0.000164666    0.000117798
     70        6          -0.000013436    0.000098693   -0.000074106
     71        6           0.000040575   -0.000009868    0.000025858
     72        6          -0.000009652    0.000007132   -0.000009932
     73        1           0.000032137   -0.000089079    0.000066842
     74        6           0.000013823    0.000006615   -0.000006664
     75        1          -0.000026216   -0.000004665   -0.000006521
     76        6          -0.000007192   -0.000013910   -0.000003959
     77        1           0.000005714    0.000030636   -0.000011162
     78        1          -0.000011325   -0.000003766    0.000017041
     79        1          -0.000008954    0.000033664   -0.000001347
     80        6          -0.000042917    0.000008060   -0.000008892
     81        6          -0.000037889   -0.000043458    0.000017457
     82        6           0.000050028   -0.000015732    0.000046209
     83        6          -0.000008645    0.000009408    0.000001549
     84        1           0.000074991    0.000022908    0.000008128
     85        6          -0.000001869   -0.000002487   -0.000006751
     86        1          -0.000026453    0.000027630   -0.000021307
     87        6          -0.000009283   -0.000007981    0.000006197
     88        1           0.000028002   -0.000003268   -0.000009019
     89        1          -0.000029984    0.000014911   -0.000006505
     90        1          -0.000000495    0.000009973   -0.000016966
 -------------------------------------------------------------------
 Cartesian Forces:  Max     0.000192624 RMS     0.000035440

 GradGradGradGradGradGradGradGradGradGradGradGradGradGradGradGradGradGrad
 Berny optimization.
 FormGI is forming the generalized inverse of G from B-inverse, IUseBI=4.
 Internal  Forces:  Max     0.000325086 RMS     0.000039681
 Search for a local minimum.
 Step number   1 out of a maximum of  540
 All quantities printed in internal units (Hartrees-Bohrs-Radians)
 Mixed Optimization -- En-DIIS/RFO-DIIS
 Second derivative matrix not updated -- first step.
 ITU=  0
     Eigenvalues ---    0.00230   0.00235   0.00287   0.00303   0.00322
     Eigenvalues ---    0.00376   0.00413   0.00413   0.00414   0.00453
     Eigenvalues ---    0.00694   0.00720   0.00753   0.00836   0.00839
     Eigenvalues ---    0.01118   0.01180   0.01469   0.01527   0.01608
     Eigenvalues ---    0.01630   0.01638   0.01643   0.01659   0.01705
     Eigenvalues ---    0.01834   0.01902   0.01935   0.02000   0.02078
     Eigenvalues ---    0.02213   0.02229   0.02232   0.02237   0.02243
     Eigenvalues ---    0.02247   0.02255   0.02260   0.02263   0.02270
     Eigenvalues ---    0.02273   0.02274   0.02276   0.02278   0.02279
     Eigenvalues ---    0.02284   0.02289   0.02289   0.02290   0.02290
     Eigenvalues ---    0.02291   0.02294   0.02299   0.02300   0.02300
     Eigenvalues ---    0.02301   0.02303   0.02305   0.02313   0.02321
     Eigenvalues ---    0.02384   0.02470   0.02554   0.02645   0.02877
     Eigenvalues ---    0.03307   0.03649   0.03650   0.03658   0.03691
     Eigenvalues ---    0.03779   0.04378   0.04523   0.04639   0.04876
     Eigenvalues ---    0.04906   0.04906   0.04927   0.04928   0.04928
     Eigenvalues ---    0.05476   0.05627   0.05646   0.05672   0.05901
     Eigenvalues ---    0.06478   0.06723   0.07269   0.07316   0.07455
     Eigenvalues ---    0.07504   0.08050   0.08128   0.08211   0.08244
     Eigenvalues ---    0.08248   0.10882   0.11062   0.12050   0.12104
     Eigenvalues ---    0.12132   0.12134   0.12411   0.14406   0.14866
     Eigenvalues ---    0.15097   0.15695   0.15790   0.15995   0.15999
     Eigenvalues ---    0.16000   0.16000   0.16000   0.16000   0.16000
     Eigenvalues ---    0.16000   0.16000   0.16000   0.16000   0.16000
     Eigenvalues ---    0.16000   0.16000   0.16000   0.16000   0.16000
     Eigenvalues ---    0.16000   0.16000   0.16000   0.16000   0.16000
     Eigenvalues ---    0.16000   0.16000   0.16000   0.16000   0.16000
     Eigenvalues ---    0.16000   0.16000   0.16000   0.16000   0.16014
     Eigenvalues ---    0.17061   0.17611   0.18138   0.21011   0.21477
     Eigenvalues ---    0.21745   0.21922   0.21930   0.21933   0.21935
     Eigenvalues ---    0.21999   0.21999   0.22000   0.22000   0.22000
     Eigenvalues ---    0.22100   0.22428   0.22778   0.23249   0.23323
     Eigenvalues ---    0.23439   0.23440   0.23477   0.23639   0.23814
     Eigenvalues ---    0.23872   0.23976   0.24554   0.24606   0.24715
     Eigenvalues ---    0.24890   0.24990   0.24990   0.24996   0.26122
     Eigenvalues ---    0.28103   0.28967   0.29468   0.29731   0.29732
     Eigenvalues ---    0.29738   0.30017   0.32938   0.32962   0.33975
     Eigenvalues ---    0.33976   0.34261   0.34415   0.34444   0.34474
     Eigenvalues ---    0.34476   0.34489   0.34492   0.34509   0.34522
     Eigenvalues ---    0.34598   0.34700   0.34731   0.34809   0.34864
     Eigenvalues ---    0.34888   0.34990   0.35040   0.35046   0.35058
     Eigenvalues ---    0.35082   0.35153   0.35154   0.35250   0.35420
     Eigenvalues ---    0.35582   0.35710   0.35846   0.35878   0.35892
     Eigenvalues ---    0.35895   0.35909   0.35913   0.35921   0.35924
     Eigenvalues ---    0.35927   0.35932   0.35946   0.35947   0.35965
     Eigenvalues ---    0.35966   0.36003   0.36051   0.36231   0.42522
     Eigenvalues ---    0.42926   0.43220   0.43278   0.43313   0.43357
     Eigenvalues ---    0.43519   0.43538   0.44406   0.45101   0.46810
     Eigenvalues ---    0.47042   0.47089   0.47528   0.47532   0.47539
     Eigenvalues ---    0.47774   0.47804   0.47967   0.48068   0.48240
     Eigenvalues ---    0.48256   0.48307   0.48613   0.48618   0.48666
     Eigenvalues ---    0.53938   0.56364   0.57717   0.60423   1.21338
     Eigenvalues ---    1.308801000.000001000.000001000.000001000.00000
     Eigenvalues --- 1000.000001000.000001000.000001000.000001000.00000
     Eigenvalues --- 1000.000001000.000001000.000001000.000001000.00000
     Eigenvalues --- 1000.000001000.000001000.000001000.000001000.00000
     Eigenvalues --- 1000.000001000.000001000.000001000.000001000.00000
     Eigenvalues --- 1000.000001000.000001000.000001000.000001000.00000
     Eigenvalues --- 1000.000001000.000001000.000001000.000001000.00000
     Eigenvalues --- 1000.000001000.000001000.000001000.000001000.00000
     Eigenvalues --- 1000.000001000.000001000.000001000.000001000.00000
     Eigenvalues --- 1000.000001000.000001000.000001000.000001000.00000
     Eigenvalues --- 1000.000001000.000001000.000001000.000001000.00000
     Eigenvalues --- 1000.000001000.000001000.000001000.000001000.00000
     Eigenvalues --- 1000.000001000.000001000.000001000.000001000.00000
     Eigenvalues --- 1000.000001000.000001000.000001000.000001000.00000
     Eigenvalues --- 1000.000001000.000001000.000001000.000001000.00000
     Eigenvalues --- 1000.000001000.000001000.000001000.000001000.00000
     Eigenvalues --- 1000.000001000.000001000.000001000.000001000.00000
     Eigenvalues --- 1000.000001000.000001000.000001000.000001000.00000
     Eigenvalues --- 1000.000001000.000001000.000001000.000001000.00000
     Eigenvalues --- 1000.000001000.000001000.000001000.000001000.00000
     Eigenvalues --- 1000.000001000.000001000.000001000.000001000.00000
     Eigenvalues --- 1000.000001000.000001000.000001000.000001000.00000
     Eigenvalues --- 1000.000001000.000001000.000001000.000001000.00000
     Eigenvalues --- 1000.000001000.000001000.000001000.000001000.00000
     Eigenvalues --- 1000.000001000.000001000.000001000.000001000.00000
     Eigenvalues --- 1000.000001000.000001000.000001000.000001000.00000
     Eigenvalues --- 1000.000001000.000001000.000001000.000001000.00000
     Eigenvalues --- 1000.000001000.000001000.000001000.000001000.00000
     Eigenvalues --- 1000.000001000.000001000.000001000.000001000.00000
     Eigenvalues --- 1000.000001000.000001000.000001000.000001000.00000
     Eigenvalues --- 1000.000001000.000001000.000001000.000001000.00000
     Eigenvalues --- 1000.000001000.000001000.000001000.000001000.00000
     Eigenvalues --- 1000.000001000.000001000.000001000.000001000.00000
     Eigenvalues --- 1000.000001000.000001000.000001000.000001000.00000
     Eigenvalues --- 1000.000001000.000001000.000001000.000001000.00000
     Eigenvalues --- 1000.000001000.000001000.000001000.000001000.00000
     Eigenvalues --- 1000.000001000.000001000.000001000.000001000.00000
     Eigenvalues --- 1000.000001000.000001000.000001000.000001000.00000
     Eigenvalues --- 1000.000001000.000001000.000001000.000001000.00000
     Eigenvalues --- 1000.000001000.000001000.000001000.000001000.00000
     Eigenvalues --- 1000.000001000.000001000.000001000.000001000.00000
     Eigenvalues --- 1000.000001000.000001000.000001000.000001000.00000
     Eigenvalues --- 1000.000001000.000001000.000001000.000001000.00000
     Eigenvalues --- 1000.000001000.000001000.000001000.000001000.00000
     Eigenvalues --- 1000.000001000.000001000.000001000.000001000.00000
     Eigenvalues --- 1000.000001000.000001000.000001000.000001000.00000
     Eigenvalues --- 1000.000001000.000001000.000001000.000001000.00000
     Eigenvalues --- 1000.000001000.000001000.000001000.000001000.00000
     Eigenvalues --- 1000.000001000.000001000.000001000.00000
 RFO step:  Lambda=-3.06343805D-05 EMin= 2.30236671D-03
 Linear search not attempted -- first point.
 Iteration  1 RMS(Cart)=  0.04247360 RMS(Int)=  0.00009034
 Iteration  2 RMS(Cart)=  0.00033817 RMS(Int)=  0.00000674
 Iteration  3 RMS(Cart)=  0.00000002 RMS(Int)=  0.00000674
 Variable       Old X    -DE/DX   Delta X   Delta X   Delta X     New X
                                 (Linear)    (Quad)   (Total)
    X1        4.87800   0.00012   0.00000   0.00000   0.00000   4.87800
    Y1       -3.14419  -0.00009   0.00000   0.00000  -0.00000  -3.14419
    Z1       -1.60301  -0.00002   0.00000   0.00000   0.00000  -1.60301
    X7        1.10378   0.00020   0.00000   0.00000   0.00000   1.10378
    Y7       -0.56987   0.00010   0.00000   0.00000   0.00000  -0.56987
    Z7       -0.99968   0.00033   0.00000   0.00000   0.00000  -0.99968
    X8        1.67023  -0.00014   0.00000   0.00000   0.00000   1.67023
    Y8       -3.78926  -0.00006   0.00000   0.00000   0.00000  -3.78926
    Z8        0.17875  -0.00008   0.00000   0.00000   0.00000   0.17875
    R1        2.89036   0.00000   0.00000   0.00001   0.00001   2.89037
    R2        2.07370  -0.00001   0.00000  -0.00002  -0.00002   2.07368
    R3        2.91691  -0.00003   0.00000   0.00004   0.00003   2.91694
    R4        2.06165  -0.00000   0.00000  -0.00000  -0.00000   2.06165
    R5        2.06538  -0.00000   0.00000  -0.00000  -0.00000   2.06538
    R6        2.05896   0.00000   0.00000   0.00001   0.00001   2.05896
    R7        4.33699   0.00008   0.00000   0.00068   0.00067   4.33766
    R8        3.53427  -0.00004   0.00000  -0.00015  -0.00014   3.53412
    R9        2.21138   0.00005   0.00000   0.00004   0.00005   2.21143
   R10        3.46501   0.00002   0.00000   0.00008   0.00008   3.46509
   R11        3.46022  -0.00001   0.00000  -0.00004  -0.00004   3.46018
   R12        3.43862  -0.00002   0.00000   0.00004   0.00004   3.43866
   R13        2.18331   0.00005   0.00000   0.00004   0.00004   2.18335
   R14        2.06892   0.00000   0.00000   0.00000   0.00000   2.06892
   R15        2.06830  -0.00006   0.00000  -0.00016  -0.00016   2.06814
   R16        2.90072   0.00000   0.00000   0.00001   0.00001   2.90073
   R17        4.50154   0.00001   0.00000  -0.00138  -0.00138   4.50016
   R18        2.06333  -0.00000   0.00000  -0.00000  -0.00000   2.06332
   R19        2.06636  -0.00000   0.00000  -0.00000  -0.00000   2.06636
   R20        2.88501  -0.00000   0.00000  -0.00001  -0.00001   2.88501
   R21        2.06508  -0.00000   0.00000  -0.00001  -0.00001   2.06508
   R22        2.06587  -0.00000   0.00000  -0.00000  -0.00000   2.06587
   R23        2.88489   0.00000   0.00000   0.00001   0.00001   2.88490
   R24        2.06535  -0.00000   0.00000  -0.00001  -0.00001   2.06534
   R25        2.06512  -0.00000   0.00000  -0.00001  -0.00001   2.06512
   R26        2.88503  -0.00000   0.00000  -0.00000  -0.00000   2.88503
   R27        2.06480  -0.00000   0.00000  -0.00000  -0.00000   2.06480
   R28        2.06458  -0.00000   0.00000  -0.00000  -0.00000   2.06457
   R29        2.87930  -0.00000   0.00000  -0.00000  -0.00000   2.87929
   R30        2.05600  -0.00000   0.00000  -0.00001  -0.00001   2.05599
   R31        2.05542  -0.00000   0.00000  -0.00001  -0.00001   2.05541
   R32        2.05611  -0.00000   0.00000  -0.00001  -0.00001   2.05610
   R33        2.62706  -0.00001   0.00000  -0.00003  -0.00003   2.62703
   R34        2.49263  -0.00002   0.00000  -0.00004  -0.00004   2.49259
   R35        2.04740  -0.00006   0.00000  -0.00016  -0.00016   2.04724
   R36        2.63083   0.00001   0.00000   0.00004   0.00004   2.63087
   R37        2.82461  -0.00001   0.00000  -0.00003  -0.00003   2.82458
   R38        2.61009  -0.00002   0.00000  -0.00002  -0.00002   2.61007
   R39        2.04324  -0.00000   0.00000  -0.00001  -0.00001   2.04323
   R40        2.63752   0.00000   0.00000   0.00000   0.00000   2.63752
   R41        2.04002  -0.00000   0.00000  -0.00000  -0.00000   2.04001
   R42        2.51561  -0.00003   0.00000  -0.00010  -0.00010   2.51551
   R43        2.78162  -0.00005   0.00000  -0.00009  -0.00010   2.78153
   R44        4.29416   0.00002   0.00000  -0.00066  -0.00066   4.29350
   R45        2.63005   0.00002   0.00000   0.00006   0.00006   2.63011
   R46        2.53426  -0.00005   0.00000  -0.00014  -0.00014   2.53411
   R47        2.61088  -0.00000   0.00000   0.00006   0.00006   2.61093
   R48        2.03722  -0.00000   0.00000  -0.00000  -0.00000   2.03722
   R49        2.62834  -0.00000   0.00000  -0.00003  -0.00003   2.62832
   R50        2.04696  -0.00005   0.00000  -0.00016  -0.00016   2.04680
   R51        2.51359  -0.00004   0.00000  -0.00009  -0.00010   2.51349
   R52        2.62507   0.00003   0.00000   0.00011   0.00011   2.62518
[...]
 079,-0.00004431,0.00002389,0.00001207,-0.00000352,-0.00000319,0.000004
 42,-0.00000134,0.00000016,0.00000382,0.00000987,-0.00000420,-0.0000233
 8,0.00000957,-0.00001109,-0.00000240,-0.00000057,0.00000707,-0.0000014
 9,-0.00000039,-0.00000162,-0.00000048,-0.00000096,0.00000275,-0.000000
 81,0.00000004,-0.00000148,-0.00001404,-0.00003901,-0.00005245,0.000002
 58,-0.00001648,-0.00006109,-0.00001394,0.00001594,0.00001570,0.0000007
 4,0.00001821,0.00001141,-0.00001738,-0.00000024,0.00001667,-0.00001317
 ,-0.00000731,-0.00000780,-0.00000232,-0.00000321,-0.00000089,0.0000193
 5,-0.00000059,-0.00000961,-0.00000554,0.00000067,-0.00000288,-0.000004
 03,0.00000048,0.00000312,0.00000013,0.00000015,0.00000291,0.00710829,-
 0.00041443,0.00301387,-0.00034851,0.00001671,0.00021007,0.00116609,-0.
 00662871,0.00141594,0.00696072,0.00150631,0.00336271,-0.00170059,-0.00
 007393,-0.00048372,-0.03566206,0.01082046,0.00123193,-0.00240978,-0.00
 053276,-0.00086819,0.00029533,0.00811424,-0.00035031,-0.00000638,0.000
 44934,-0.00000723,0.02688770,0.,0.,0.,-0.00001753,-0.00000878,0.000007
 75,0.00000639,0.00000566,-0.00001883,-0.00005131,0.00002766,0.00000321
 ,-0.00001882,0.00001368,0.00001768,0.00000758,0.00000242,0.00000796,0.
 ,0.,0.,0.,0.,0.,0.00001707,0.00064107,-0.00027373,0.00031841,-0.000507
 56,-0.00028389,0.00013436,0.00016708,-0.00017150,-0.00005750,-0.000100
 60,0.00011769,0.00001766,0.00000226,0.00000214,0.00000791,0.00001309,-
 0.00001387,0.00001009,0.00000517,0.00000670,0.00000157,-0.00001416,0.0
 0000408,-0.00000201,0.00000529,0.00000546,-0.00000528,0.00000318,-0.00
 000834,-0.00000056,0.00000330,-0.00000160,0.00000268,0.00000195,-0.000
 00372,0.00000113,0.00000111,0.00000144,0.00000204,-0.00000768,0.000000
 16,-0.00000241,0.00000231,-0.00000393,-0.00000112,0.00000199,0.0000025
 7,0.00000058,0.00000142,-0.00000062,0.00000010,0.00000044,0.00000117,0
 .00000060,0.00000108,-0.00000220,-0.00000098,-0.00000206,0.00000060,-0
 .00000025,0.00000141,0.00000200,-0.00000238,-0.00000153,-0.00000005,-0
 .00000100,0.00000176,-0.00000214,-0.00000936,0.00005092,-0.00003304,-0
 .00000884,0.00001870,0.00000261,-0.00000567,0.00000166,-0.00000593,0.0
 0000788,-0.00000066,0.00000043,0.00006616,0.00001964,-0.00002090,-0.00
 007902,-0.00008403,0.00002326,-0.00000419,-0.00000660,0.00000778,-0.00
 000310,0.00000016,0.00000043,-0.00000590,-0.00000137,0.00000710,-0.000
 00581,0.00003904,0.00000330,0.00000083,-0.00001548,-0.00000836,0.00001
 731,0.00001886,-0.00002903,0.00001756,-0.00003794,-0.00000400,-0.00000
 257,0.00004910,0.00000566,0.00005217,-0.00014308,0.00010034,-0.0000127
 0,0.00000938,0.00000753,0.00002151,-0.00000881,0.00001348,-0.00002315,
 0.00007333,-0.00003634,0.00001492,0.00001651,-0.00000351,0.00000023,-0
 .00000678,-0.00001339,-0.00007146,0.00002732,-0.00000481,0.00000510,-0
 .00002453,0.00001042,0.00000207,0.00000487,0.00000401,-0.00000288,0.00
 000787,0.00000106,0.00000066,-0.00000870,-0.00000238,0.00001914,-0.000
 02934,0.00003909,-0.00009950,-0.00005227,0.00017524,0.00006294,-0.0000
 3070,-0.00000351,-0.00004119,0.00003716,0.00000592,0.00000063,-0.00000
 934,-0.00000404,0.00000950,-0.00000612,0.00000238,-0.00002969,0.000011
 18,0.00000831,-0.00006168,-0.00000413,-0.00001011,-0.00000984,0.000006
 22,-0.00000176,0.00000190,-0.00001714,0.00001455,0.00001035,-0.0000084
 7,-0.00000602,0.00001198,-0.00001542,0.00000952,0.00001328,-0.00004701
 ,-0.00002633,-0.00003318,0.00002262,0.00002106,0.00002893,0.00003574,0
 .00001598,-0.00002564,0.00002097,0.00001232,-0.00004361,-0.00004482,-0
 .00001339,0.00001413,0.00001291,-0.00000992,0.00001606,-0.00000323,-0.
 00001303,-0.00000253,0.00000294,-0.00000027,0.00003418,0.00002034,0.00
 001607,-0.00000211,0.00000600,0.00001347,0.00001021,0.00000971,0.00001
 458,-0.00044843,-0.00012158,0.00297686,-0.00006416,0.00084908,-0.00009
 425,-0.00004045,-0.01553856,0.00438549,0.00176384,-0.00119675,-0.00353
 980,-0.00011747,0.00020196,-0.00007532,0.01068477,-0.29551649,0.030028
 54,-0.00003675,0.00096279,-0.00073918,0.00149485,-0.02144195,0.0004571
 4,-0.00000115,-0.00103102,0.00014412,-0.01298369,0.33243548,0.,0.,0.,0
 .00001091,0.00000354,-0.00000342,-0.00000910,-0.00000341,0.00000817,0.
 00002273,-0.00000755,-0.00000050,0.00000808,-0.00000896,-0.00000665,-0
 .00000138,0.00000620,-0.00000593,0.,0.,0.,0.,0.,0.,0.00000668,-0.00021
 852,0.00005928,-0.00023207,0.00088517,-0.00004177,-0.00004145,-0.00004
 001,0.00004234,0.00001532,0.00001489,-0.00002225,-0.00000230,0.0000004
 1,-0.00000240,-0.00000713,-0.00000650,0.00000525,-0.00000607,-0.000001
 52,-0.00000143,0.00000323,-0.00000067,0.00000029,0.00000045,-0.0000010
 8,-0.00000250,0.00000185,0.00000036,0.00000340,0.00000026,-0.00000104,
 0.00000155,-0.00000286,-0.00000076,0.00000185,-0.00000068,-0.00000137,
 -0.00000042,-0.00000012,0.00000114,0.00000053,0.00000082,-0.00000065,0
 .00000089,0.00000018,-0.00000061,-0.00000155,0.,-0.00000056,0.00000044
 ,-0.00000012,-0.00000056,-0.00000072,-0.00000085,-0.00000011,0.0000001
 8,0.00000044,-0.00000034,0.00000020,0.00000006,-0.00000071,-0.00000159
 ,0.00000120,-0.00000018,-0.00000095,0.00000018,-0.00000094,-0.00000026
 ,0.00000181,0.00000666,-0.00001549,-0.00000426,-0.00001153,0.00000130,
 -0.00000308,-0.00000623,0.00001043,-0.00000888,0.00000434,-0.00000060,
 0.00000780,-0.00000942,-0.00001196,-0.00000351,-0.00000363,0.00004521,
 0.00000096,-0.00000153,-0.00000014,0.00000143,0.00000187,-0.00000409,-
 0.00000313,-0.00000327,-0.00000233,-0.00000494,-0.00000138,-0.00002263
 ,0.00000348,-0.00002296,-0.00002107,-0.00001993,0.00000387,0.00000169,
 0.00000255,-0.00000976,-0.00001990,-0.00000041,0.00002698,-0.00000557,
 0.00000685,-0.00000271,-0.00000555,0.00000048,0.00000607,0.00000168,0.
 00001292,-0.00001319,0.00003172,-0.00000691,0.00000888,0.00000122,0.00
 000101,0.00000320,-0.00000197,-0.00000044,-0.00001713,-0.00000075,-0.0
 0000005,-0.00000725,0.00002554,0.00000107,0.00000284,0.00000511,-0.000
 00289,-0.00000475,0.00000411,0.00000080,-0.00000446,-0.00000300,0.0000
 0087,0.00000387,0.00000062,-0.00000274,0.00002108,-0.00003254,0.000144
 14,0.00006453,-0.00023958,-0.00008642,0.00007923,-0.00002518,0.0000287
 7,0.00000440,0.00000707,-0.00000993,0.00001833,0.00000900,-0.00002018,
 -0.00000806,0.00001365,0.00001780,0.00001169,-0.00001095,0.00003536,-0
 .00002153,-0.00003872,0.00001517,-0.00000390,-0.00000404,-0.00000830,0
 .00001063,-0.00000901,-0.00000988,0.00000681,0.00000064,-0.00001020,0.
 00000585,-0.00000329,-0.00001943,0.00003758,0.00013529,-0.00000023,-0.
 00000520,-0.00001802,-0.00000995,-0.00000406,0.00000481,0.00001952,-0.
 00000653,-0.00000682,0.00006509,0.00001639,0.00001832,-0.00001963,-0.0
 0001776,-0.00000252,-0.00001061,0.00000624,0.00001805,0.00001710,-0.00
 001073,-0.00001513,-0.00002519,-0.00001247,-0.00001156,0.00000308,-0.0
 0000611,-0.00000989,-0.00000473,-0.00001186,-0.00001374,0.00352307,0.0
 0281956,-0.00378369,0.00005724,-0.00009633,-0.00049855,-0.00029687,0.0
 2685362,-0.00500944,0.00324188,-0.00291006,-0.00242399,-0.00051056,-0.
 00004148,-0.00008033,0.00124137,0.03025073,-0.04676281,-0.00104026,0.0
 0081517,0.00053103,0.00133180,-0.02251351,0.00198435,0.00006396,-0.001
 20794,-0.00000986,-0.00663029,-0.03399036,0.05571293,0.,0.,0.,-0.00000
 352,-0.00000386,-0.00000484,0.00000429,-0.00000108,-0.00000513,-0.0000
 1528,0.00001151,0.00000185,-0.00000693,0.00000401,0.00000605,0.0000029
 6,-0.00000437,-0.00000443,0.,0.,0.,0.,0.,0.,-0.00009572,0.00009454,-0.
 00007499,-0.00129789,-0.00013932,-0.00018743,0.00001065,-0.00003748,0.
 00000037,0.00000084,0.00002512,-0.00001138,-0.00000226,0.00000368,0.00
 000803,0.00000125,0.00000403,-0.00000490,0.00000108,-0.00000222,-0.000
 00107,-0.00000499,-0.00000982,0.00000554,0.00000157,0.00000003,-0.0000
 0182,-0.00000106,0.00000298,-0.00000345,-0.00000391,0.00000282,0.00000
 349,0.00000103,0.00000157,-0.00000252,0.00000116,-0.00000209,-0.000002
 36,-0.00000066,-0.00000388,0.00000292,-0.00000091,0.00000204,-0.000002
 23,0.00000086,-0.00000053,-0.00000147,-0.00000113,0.00000086,0.0000023
 0,0.00000052,-0.00000133,-0.00000162,0.00000021,0.00000122,-0.00000158
 ,-0.00000053,-0.00000077,0.00000227,0.00000059,-0.00000012,-0.00000083
 ,-0.00000143,-0.00000070,-0.00000038,-0.00000066,0.00000124,-0.0000014
 0,0.00000680,-0.00000047,0.00000690,-0.00000023,0.00000296,0.00000308,
 0.00000187,0.00000025,-0.00000390,-0.00000807,0.00000159,0.00000074,-0
 .00000099,-0.00000611,0.00000448,-0.00000171,-0.00000095,-0.00002140,-
 0.00000075,0.00000268,-0.00000161,-0.00000250,0.00000281,-0.00000081,0
 .00000348,0.00000268,0.00000076,-0.00000646,-0.00000836,-0.00002230,0.
 00002296,-0.00000575,-0.00000099,-0.00000387,0.00000468,-0.00000282,-0
 .00000770,0.00002677,0.00005604,-0.00000591,0.00000812,0.00000091,0.00
 003505,-0.00003355,0.00003853,0.00000608,-0.00000638,-0.00000724,-0.00
 000637,-0.00004120,-0.00002738,0.00000160,0.00003670,-0.00000482,0.000
 02588,0.00000641,-0.00001274,-0.00002576,-0.00002130,-0.00003407,-0.00
 001970,0.00001185,0.00003709,-0.00000009,0.00000437,-0.00000279,-0.000
 00037,0.00000251,-0.00000202,-0.00000023,0.00000145,0.00000042,-0.0000
 0105,-0.00000193,-0.00000089,-0.00002229,0.00000490,0.00001033,0.00007
 742,0.00011076,-0.00012458,-0.00002462,0.00002878,0.00001200,0.0000635
 5,-0.00000320,-0.00000206,0.00000838,0.00001167,-0.00001805,0.00000183
 ,0.00000385,-0.00000029,-0.00000045,-0.00000437,0.00000287,-0.00001087
 ,-0.00002718,0.00001393,-0.00000462,-0.00000070,-0.00000103,-0.0000055
 3,-0.00000143,-0.00000075,0.00000478,0.00000071,0.00000253,0.00000395,
 -0.00000473,0.00000251,0.00006058,0.00001250,-0.00009915,0.00003827,-0
 .00001207,0.00000955,-0.00000492,-0.00002831,-0.00001724,-0.00000921,-
 0.00000665,-0.00000074,-0.00001539,0.00001074,0.00001502,0.00002223,-0
 .00000170,-0.00000778,0.00000276,0.00000349,-0.00000236,-0.00000554,-0
 .00000637,-0.00000720,0.00000167,0.00000118,0.00000186,-0.00000451,0.0
 0000045,0.00000031,0.00000112,0.00000523,0.00000514,-0.00065142,0.0002
 7818,-0.00043272,0.00741764,0.00049727,0.00182766,0.00690856,0.0014933
 7,0.00344800,0.00091537,-0.00021347,0.00007637,-0.00003649,0.00007139,
 -0.00007425,-0.00126113,-0.00298346,0.00814831,-0.00014375,-0.00015805
 ,0.00032666,-0.04896835,-0.02324818,0.05521008,-0.00228664,-0.00000380
 ,-0.00102386,-0.00230672,-0.00041286,-0.00084452,0.04164896,0.,0.,0.,-
 0.00000639,0.00000057,0.00000136,0.00000041,-0.00000013,-0.00000397,-0
 .00001701,0.00000946,-0.00000019,-0.00000923,0.00000499,0.00000871,0.0
 0000097,0.00000032,0.00000247,0.,0.,0.,0.,0.,0.,-0.00000715,0.00015989
 ,-0.00005575,0.00002734,-0.00002811,-0.00018702,0.00007840,0.00024895,
 -0.00024445,-0.00004887,-0.00017677,0.00019105,-0.00000033,0.00000856,
 -0.00000038,0.00000177,0.00000118,-0.00000326,0.00000423,-0.00000027,0
 .00000424,-0.00000226,-0.00000546,0.00000165,-0.00000172,0.00000154,0.
 00000310,-0.00000209,0.00000186,-0.00000169,-0.00000278,0.00000366,-0.
 00000001,0.00000096,0.00000018,-0.00000071,0.00000126,0.00000038,0.000
 00090,0.00000002,-0.00000323,0.00000027,-0.00000094,0.00000132,-0.0000
 0123,-0.00000063,0.00000038,0.00000076,-0.00000059,0.00000184,0.000000
 17,0.00000036,-0.00000033,-0.00000008,0.00000031,0.00000002,-0.0000009
 2,-0.00000090,-0.00000170,0.00000039,0.00000005,0.00000022,0.00000040,
 -0.00000136,-0.00000218,-0.00000041,-0.00000044,0.00000090,-0.00000126
 ,-0.00002828,0.00006245,-0.00003420,-0.00002017,0.00001552,0.00002983,
 0.00000727,-0.00000678,0.00000059,0.00000378,0.00001138,0.00001046,0.0
 0008676,-0.00000378,-0.00003114,-0.00010732,-0.00018578,-0.00001571,-0
 .00000501,-0.00000661,0.00000226,-0.00001289,0.00000472,-0.00000736,-0
 .00000486,-0.00000311,0.00000367,0.00000213,0.00001387,0.00000613,0.00
 002731,-0.00003386,-0.00005156,0.00004590,-0.00001854,-0.00001974,-0.0
 0001097,-0.00002862,0.00014981,-0.00000819,0.00002728,0.00005738,0.000
 00789,-0.00002736,0.00003322,-0.00000108,0.00000597,-0.00001196,-0.000
 04521,-0.00002298,-0.00005012,-0.00000244,0.00004123,0.00001113,0.0000
 1624,-0.00000012,-0.00001235,-0.00002677,0.00000676,-0.00003461,-0.000
 01308,0.00002407,-0.00000287,0.00000230,-0.00001999,0.00000990,0.00000
 275,0.00000176,0.00000161,-0.00000391,0.00000670,-0.00000025,0.0000018
 8,-0.00000458,0.00000059,0.00003467,0.00000098,-0.00001636,0.00000337,
 0.00002848,-0.00000127,0.00000485,0.00001568,-0.00002152,0.00002656,0.
 00005986,0.00001533,0.00001783,-0.00000300,-0.00000796,-0.00000269,-0.
 00000465,0.00000452,-0.00002868,0.00000865,0.00001297,-0.00007868,-0.0
 0002538,-0.00001589,-0.00001789,-0.00000399,0.00000746,-0.00000038,-0.
 00000663,0.00000718,0.00000043,-0.00000331,0.00000089,0.00000525,-0.00
 000993,0.00000644,-0.00001078,-0.00000765,0.00001363,-0.00001626,0.000
 01681,-0.00000315,0.00001191,0.00002097,0.00000770,0.00000261,0.000007
 58,0.00000339,-0.00000409,-0.00002033,-0.00000861,-0.00000820,0.000000
 84,-0.00000197,0.00000109,-0.00000306,-0.00000207,0.00000681,0.0000078
 3,0.00000592,0.00000926,0.00000824,0.00000586,-0.00000031,0.00000350,0
 .00000733,0.00000304,0.00000340,0.00000514,0.00011837,-0.00036594,-0.0
 0060649,0.00056733,-0.00604979,0.00093054,0.00151814,-0.00116598,-0.00
 289181,-0.00686045,-0.01436660,0.02710121,-0.00033056,-0.00053759,0.00
 130063,0.00385095,0.00640664,-0.01447075,0.00021797,0.00021193,-0.0008
 1212,-0.02333661,-0.08600003,0.09155150,-0.00040508,0.00074443,0.00068
 895,0.00001467,0.00092706,-0.00091961,0.02476263,0.10027195,0.,0.,0.,0
 .00000941,0.00000224,0.00000009,-0.00000638,-0.00000213,0.00001009,0.0
 0000661,-0.00000710,-0.00000476,0.00002248,-0.00001336,-0.00001672,-0.
 00000503,0.00001235,0.00000795,0.,0.,0.,0.,0.,0.,0.00015051,0.00016035
 ,-0.00008344,-0.00065500,-0.00031027,0.00030474,-0.00010850,-0.0002300
 6,0.00024434,0.00005762,0.00016642,-0.00018493,0.00001394,-0.00000446,
 -0.00001040,-0.00000253,-0.00000787,0.00000933,-0.00000453,-0.00000486
 ,-0.00000640,0.00001168,0.00001481,-0.00000261,-0.00000096,-0.00000270
 ,-0.00000142,0.00000191,-0.00000168,0.00000318,0.00000537,-0.00000405,
 0.00000004,-0.00000251,-0.00000117,0.00000267,-0.00000090,0.00000035,-
 0.00000061,-0.00000034,0.00000759,0.00000010,0.00000150,-0.00000183,0.
 00000180,-0.00000025,-0.00000109,-0.00000107,0.00000064,-0.00000289,0.
 00000010,0.00000002,0.00000053,-0.00000042,-0.00000063,-0.00000052,0.0
 0000100,0.00000121,0.00000171,-0.00000016,-0.00000038,-0.00000124,-0.0
 0000163,0.00000417,0.00000254,-0.00000053,0.00000058,-0.00000193,0.000
 00075,0.00002040,-0.00003843,0.00001549,0.00000400,-0.00002808,-0.0000
 0319,0.00000240,-0.00000549,0.00001123,-0.00000633,-0.00000280,-0.0000
 0289,-0.00006061,-0.00001431,0.00002059,0.00007642,0.00012287,0.000016
 51,0.00000271,0.00000407,-0.00000507,0.00000007,0.00000250,-0.00000122
 ,0.00000382,-0.00000114,-0.00000528,-0.00000805,-0.00002483,-0.0000037
 7,-0.00001365,0.00001909,-0.00002114,-0.00001907,-0.00000300,0.0000049
 5,0.00002181,0.00001276,-0.00009448,-0.00001052,-0.00000797,-0.0000139
 9,-0.00001715,0.00006959,-0.00009011,-0.00000560,-0.00000629,0.0000107
 2,-0.00001008,0.00000647,0.00009307,0.00000055,-0.00005761,0.00001296,
 -0.00002839,-0.00001256,-0.00000034,0.00001638,0.00000788,0.00006691,0
 .00004563,-0.00002414,-0.00003771,-0.00000378,0.00002014,-0.00000700,-
 0.00000267,-0.00000647,-0.00000092,0.00000159,-0.00000779,-0.00000289,
 0.00000087,0.00001084,0.00000250,0.00000593,0.00002720,-0.00000356,0.0
 0006629,0.00004404,-0.00008185,-0.00004695,0.00001716,0.00002267,0.000
 03330,-0.00001101,-0.00001669,-0.00000089,-0.00000114,0.00000163,-0.00
 000600,0.00000380,0.00000064,0.00002856,-0.00001284,-0.00000650,0.0000
 6293,-0.00001185,-0.00001330,0.00000396,-0.00000099,0.00000216,-0.0000
 0404,0.00001489,-0.00001314,-0.00002248,0.00001447,0.00000278,-0.00001
 212,0.00001500,-0.00000782,0.00001215,0.00007125,-0.00006588,0.0000486
 7,0.00004207,-0.00001374,-0.00004985,-0.00000662,0.00002375,0.00004166
 ,0.00002148,0.00001267,0.00005119,-0.00000226,-0.00000016,-0.00001478,
 -0.00000043,0.00001457,-0.00000418,-0.00000435,-0.00000179,0.00000933,
 0.00001021,0.00000830,-0.00001555,-0.00001671,-0.00000879,0.00000599,-
 0.00001126,-0.00001662,-0.00000471,-0.00001402,-0.00001561,-0.00026398
 ,-0.00054664,0.00063168,0.00180954,0.00141712,0.00161724,0.00340832,-0
 .00340612,-0.00261220,0.00161572,0.00404791,-0.00549428,0.00003464,-0.
 00007652,-0.00029342,0.00677696,0.00859266,-0.02412481,0.00024095,0.00
 051314,-0.00113334,0.05502654,0.09150156,-0.24246663,-0.00093777,-0.00
 073852,0.00075306,-0.00098034,0.00051076,0.00057792,-0.06631759,-0.101
 74188,0.27243192\\0.,0.,0.,-0.00000181,-0.00000103,0.00000174,0.000000
 22,0.00000045,-0.00000037,0.00000061,0.00000012,0.00000048,0.00000020,
 -0.00000083,-0.00000079,0.00000009,0.00000016,-0.00000027,0.,0.,0.,0.,
 0.,0.,-0.00000107,0.00000063,0.00000054,-0.00000307,-0.00000466,0.0000
 0571,0.00000236,-0.00000508,0.00000377,0.00000055,0.00000359,-0.000003
 03,0.00000025,0.00000365,-0.00000044,0.00000049,-0.00000059,0.00000079
 ,-0.00000073,-0.00000333,0.00000086,0.00000070,-0.00000002,-0.00000086
 ,-0.00000058,0.00000018,0.00000009,0.00000020,0.00000003,0.00000021,-0
 .00000038,0.00000016,-0.00000017,0.00000032,-0.00000011,0.00000008,-0.
 00000027,-0.00000017,0.00000002,0.00000022,-0.00000010,0.,0.00000008,0
 .00000009,0.00000006,-0.00000010,-0.00000009,0.00000005,-0.00000018,0.
 00000023,-0.00000018,-0.00000010,-0.00000010,0.00000004,0.00000013,-0.
 00000006,0.00000005,0.00000024,-0.00000003,0.00000010,-0.00000003,-0.0
 0000008,0.00000002,0.00000001,-0.00000003,-0.00000005,0.00000001,0.000
 00005,-0.00000001,-0.00000082,-0.00000225,-0.00000224,0.00000101,0.000
 00013,-0.00000029,-0.00000061,0.00000071,0.00000047,-0.00000081,-0.000
 00087,0.00000115,0.00000137,0.00000054,-0.00000164,-0.00000120,0.00000
 294,0.00000046,0.,-0.00000022,-0.00000023,0.00000052,0.00000080,0.0000
 0116,0.00000026,0.00000002,-0.00000003,0.00000072,-0.00000220,-0.00000
 031,-0.00000056,0.00000042,-0.00000085,0.00000026,-0.00000044,0.000001
 82,-0.00000088,0.00000028,-0.00000033,-0.00000083,-0.00000033,-0.00000
 012,0.00000077,-0.00000036,-0.00000075,-0.00000090,0.00000180,-0.00000
 083,0.00000032,0.00000044,0.00000041,-0.00000101,-0.00000087,-0.000000
 63,0.00000018,0.00000031,0.00000044,-0.00000013,-0.00000004,0.00000004
 ,0.00000063,0.00000028,-0.00000011,-0.00000074,-0.00000008,0.00000031,
 0.00000006,0.00000016,-0.00000016,0.00000010,0.00000013,0.00000036,0.0
 0000048,-0.00000001,-0.00000048,-0.00000091,0.00000159,0.00000129,0.00
 000662,0.00000549,-0.00000666,-0.00000087,-0.00000187,0.00000358,-0.00
 000224,-0.00000282,0.00000032,-0.00000265,0.00000094,0.00000060,0.0000
 0092,0.00000116,0.00000030,-0.00000018,-0.00000103,0.00000184,0.000000
 61,0.00000089,0.00000109,0.00000123,0.00000103,-0.00000171,0.00000018,
 -0.00000033,-0.00000009,0.00000011,-0.00000009,-0.00000014,0.00000010,
 -0.00000024,0.00000008,-0.00000247,-0.00000019,0.00000223,0.00000158,-
 0.00000024,-0.00000073,0.00000073,-0.00000126,-0.00000057,0.,-0.000000
 35,-0.00000117,-0.00000040,-0.00000027,-0.00000082,0.00000107,0.000000
 50,0.00000033,0.00000042,0.00000059,-0.00000028,-0.00000101,-0.0000001
 8,0.00000006,0.00000005,0.,0.00000025,-0.00000024,0.00000018,-0.000000
 09,0.00000007,-0.00000014,0.00000023,-0.00000216,-0.00000178,-0.000001
 75,0.00000140,-0.00000063,-0.00000356,0.00000067,0.00000283,0.00000030
 ,0.00000047,0.00000298,-0.00000096,0.00000122,-0.00000189,0.00000408,-
 0.00000116,0.,0.00000212,-0.00000023,-0.00000011,0.00000024,-0.0000000
 4,-0.00000276,-0.00000010,0.00000034,0.00000009,0.,0.00000002,-0.00000
 009,-0.00000029,0.00000044,0.00000027,0.00000018\\\@



 IN THIS SHORT LIFE

 THAT ONLY LASTS AN HOUR

 HOW MUCH, HOW LITTLE, IS WITHIN OUR POWER....


 EMILY DICKINSON BOLTS OF MELODY NO. 521
 Job cpu time:       0 days  0 hours  0 minutes  0.6 seconds.
 Elapsed time:       0 days  0 hours  1 minutes  1.0 seconds.
 File lengths (MBytes):  RWF=      6 Int=      0 D2E=      0 Chk=      7 Scr=      1
 Normal termination of Gaussian 16 at Thu Dec  4 19:30:06 2025.
