 Entering Gaussian System, Link 0=g16
 Input=Salen_R_E.gjf
 Output=Salen_R_E.log
 Initial command:
 /usr/local/bin/g16/l1.exe "/usr/local/bin/g16/scratch/Gau-2209.inp" -scrdir="/usr/local/bin/g16/scratch/"
 Entering Link 1 = /usr/local/bin/g16/l1.exe PID=      2211.
  
 Copyright (c) 1988,1990,1992,1993,1995,1998,2003,2009,2016,
            Gaussian, Inc.  All Rights Reserved.
  
 This is part of the Gaussian(R) 16 program.  It is based on
 the Gaussian(R) 09 system (copyright 2009, Gaussian, Inc.),
 the Gaussian(R) 03 system (copyright 2003, Gaussian, Inc.),
 the Gaussian(R) 98 system (copyright 1998, Gaussian, Inc.),
 the Gaussian(R) 94 system (copyright 1995, Gaussian, Inc.),
 the Gaussian 92(TM) system (copyright 1992, Gaussian, Inc.),
 the Gaussian 90(TM) system (copyright 1990, Gaussian, Inc.),
 the Gaussian 88(TM) system (copyright 1988, Gaussian, Inc.),
 the Gaussian 86(TM) system (copyright 1986, Carnegie Mellon
 University), and the Gaussian 82(TM) system (copyright 1983,
 Carnegie Mellon University). Gaussian is a federally registered
 trademark of Gaussian, Inc.
  
 This software contains proprietary and confidential information,
 including trade secrets, belonging to Gaussian, Inc.
  
 This software is provided under written license and may be
 used, copied, transmitted, or stored only in accord with that
 written license.
  
 The following legend is applicable only to US Government
 contracts under FAR:
  
                    RESTRICTED RIGHTS LEGEND
  
 Use, reproduction and disclosure by the US Government is
 subject to restrictions as set forth in subparagraphs (a)
 and (c) of the Commercial Computer Software - Restricted
 Rights clause in FAR 52.227-19.
  
 Gaussian, Inc.
 340 Quinnipiac St., Bldg. 40, Wallingford CT 06492
  
  
 ---------------------------------------------------------------
 Warning -- This program may not be used in any manner that
 competes with the business of Gaussian, Inc. or will provide
 assistance to any competitor of Gaussian, Inc.  The licensee
 of this program is prohibited from giving any competitor of
 Gaussian, Inc. access to this program.  By using this program,
 the user acknowledges that Gaussian, Inc. is engaged in the
 business of creating and licensing software in the field of
 computational chemistry and represents and warrants to the
 licensee that it is not a competitor of Gaussian, Inc. and that
 it will not use this program in any manner prohibited above.
 ---------------------------------------------------------------
  

 Cite this work as:
 Gaussian 16, Revision A.03,
 M. J. Frisch, G. W. Trucks, H. B. Schlegel, G. E. Scuseria, 
 M. A. Robb, J. R. Cheeseman, G. Scalmani, V. Barone, 
 G. A. Petersson, H. Nakatsuji, X. Li, M. Caricato, A. V. Marenich, 
 J. Bloino, B. G. Janesko, R. Gomperts, B. Mennucci, H. P. Hratchian, 
 J. V. Ortiz, A. F. Izmaylov, J. L. Sonnenberg, D. Williams-Young, 
 F. Ding, F. Lipparini, F. Egidi, J. Goings, B. Peng, A. Petrone, 
 T. Henderson, D. Ranasinghe, V. G. Zakrzewski, J. Gao, N. Rega, 
 G. Zheng, W. Liang, M. Hada, M. Ehara, K. Toyota, R. Fukuda, 
 J. Hasegawa, M. Ishida, T. Nakajima, Y. Honda, O. Kitao, H. Nakai, 
 T. Vreven, K. Throssell, J. A. Montgomery, Jr., J. E. Peralta, 
 F. Ogliaro, M. J. Bearpark, J. J. Heyd, E. N. Brothers, K. N. Kudin, 
 V. N. Staroverov, T. A. Keith, R. Kobayashi, J. Normand, 
 K. Raghavachari, A. P. Rendell, J. C. Burant, S. S. Iyengar, 
 J. Tomasi, M. Cossi, J. M. Millam, M. Klene, C. Adamo, R. Cammi, 
 J. W. Ochterski, R. L. Martin, K. Morokuma, O. Farkas, 
 J. B. Foresman, and D. J. Fox, Gaussian, Inc., Wallingford CT, 2016.
 
 ******************************************
 Gaussian 16:  ES64L-G16RevA.03 25-Dec-2016
                11-Dec-2025 
 ******************************************
 %chk=Salen_R_E.chk
 %nprocshared=1
 Will use up to    1 processors via shared memory.
 %nosave
 ---------------------------
 #p force external='gxtbint'
 ---------------------------
 1/10=10,18=10,30=1,38=1,172=1/1;
 2/12=2,17=6,18=5,29=2,40=1/2;
 3/11=9,25=1,30=1,41=9900000,43=2,71=1/1;
 4/20=17,22=1,24=3,113=1,114=1/2;
 6/7=2,8=2,9=2,10=2/1;
 7/7=1,44=-1/16;
 99/12=1/99;
 Leave Link    1 at Thu Dec 11 21:24:24 2025, MaxMem=           0 cpu:               0.0 elap:               0.0
 (Enter /usr/local/bin/g16/l101.exe)
 -------
 Salen_R
 -------
 Symbolic Z-matrix:
 Charge =  1 Multiplicity = 1
 O                     1.42137  -1.26405  -0.79566 
 O                    -1.53656  -1.95327  -0.28556 
 Zr                   -0.20895  -0.51455   0.16912 
 C                     3.09328  -1.88142   0.75802 
 C                     2.69434  -1.51963  -0.54895 
 C                     4.45425  -2.09841   1.06007 
 C                     3.6775   -1.42552  -1.57017 
 C                     5.43571  -1.94824   0.10036 
 H                     4.71335  -2.36806   2.07957 
 C                     5.00258  -1.62983  -1.20206 
 H                     5.76093  -1.53668  -1.9701 
 C                    -3.51367  -1.38092   0.88892 
 C                    -4.92037  -1.41901   0.99285 
 C                    -2.85604  -2.04542  -0.18102 
 C                    -5.68613  -2.09321   0.06399 
 H                    -5.38395  -0.90375   1.82865 
 C                    -3.61111  -2.84561  -1.07627 
 C                    -4.99325  -2.81042  -0.93503 
 H                    -5.58596  -3.3878   -1.63438 
 C                     2.16802  -2.02485   1.84568 
 H                     2.62417  -2.45037   2.74013 
 C                    -2.76432  -0.90226   2.01483 
 H                    -3.33593  -0.80944   2.94033 
 N                    -1.48651  -0.68668   2.04739 
 N                     0.91842  -1.69262   1.89239 
 C                    -0.84012   2.24385  -1.77588 
 C                    -1.58384   2.18476  -0.54893 
 O                    -1.71755   1.16885   0.19273 
 O                    -0.62745   1.23991  -3.86612 
 C                    -0.58301   0.06642  -4.69549 
 H                    -1.56616  -0.40791  -4.71053 
 H                    -0.31561   0.42714  -5.68767 
 H                     0.15721  -0.6388   -4.31944 
 C                    -0.70884   1.04923  -2.55815 
 O                    -0.6988   -0.09432  -2.05771 
 C                    -0.83969   3.65345  -2.30427 
 H                    -1.31494   3.71903  -3.29118 
 H                     0.17611   4.05407  -2.41721 
 C                    -1.89512   5.75854  -1.16059 
 C                    -2.6376    6.20073  -0.0621 
 C                    -3.0927    5.32778   0.93813 
 C                    -2.80046   3.97472   0.8501 
 C                    -2.06535   3.524    -0.24772 
 C                    -1.61842   4.40302  -1.24915 
 H                    -1.55842   6.46564  -1.91165 
 H                    -3.66488   5.7246    1.76958 
 H                    -3.1317    3.2772    1.61305 
 C                     4.95035   2.10439  -0.60384 
 C                     3.97202   1.63995   0.2701 
 C                     3.06956   2.52771   0.87034 
 C                     3.17295   3.89016   0.58338 
 C                     4.15805   4.35662  -0.28765 
 C                     5.04705   3.46687  -0.88631 
 H                     5.6352    1.39561  -1.05978 
 H                     3.90307   0.5779    0.47746 
 H                     2.48498   4.59932   1.03197 
 H                     4.22627   5.42003  -0.4993 
 H                     5.81139   3.83259  -1.56597 
 C                     1.98846   1.95862   1.78438 
 O                     1.38515   0.86821   1.09268 
 O                     0.71511   1.58133  -0.37538 
 H                     1.54844   1.52908  -0.89427 
 C                     0.92068   2.96243   2.19953 
 H                     1.34127   3.74659   2.83608 
 H                     0.45604   3.42301   1.32562 
 H                     0.14043   2.44559   2.76652 
 C                     2.64281   1.32128   3.02012 
 H                     3.33167   0.52553   2.72684 
 H                     3.20672   2.0896    3.55808 
 H                     1.88442   0.91099   3.69249 
 Cl                   -3.00758   7.88759   0.07332 
 C                     3.29688  -1.09619  -3.01438 
 C                     2.65207   0.29867  -3.07393 
 H                     1.71829   0.29781  -2.51241 
 H                     3.32542   1.05896  -2.66243 
 H                     2.42692   0.57299  -4.1109 
 C                     2.3125   -2.15982  -3.53281 
 H                     1.39229  -2.17219  -2.94428 
 H                     2.06204  -1.95902  -4.58167 
 H                     2.76443  -3.15669  -3.48603 
 C                     4.51474  -1.08408  -3.94495 
 H                     4.18373  -0.86579  -4.96576 
 H                     5.24064  -0.31171  -3.6651 
 H                     5.02605  -2.05285  -3.96564 
 C                     6.92678  -2.10873   0.38511 
 C                     7.49522  -3.24323  -0.48442 
 H                     7.36824  -3.0409   -1.55323 
 H                     8.56774  -3.36492  -0.29507 
 H                     6.99799  -4.19331  -0.26063 
 C                     7.64435  -0.78985   0.04774 
 H                     8.71671  -0.87584   0.25641 
 H                     7.53512  -0.52758  -1.01041 
 H                     7.24435   0.03709   0.64529 
 C                     7.19413  -2.44148   1.85593 
 H                     6.83027  -1.65135   2.52332 
 H                     6.72731  -3.38872   2.14964 
 H                     8.27176  -2.54157   2.02126 
 C                    -7.21229  -2.12869   0.09443 
 C                    -7.78034  -1.30301   1.25258 
 H                    -7.48432  -0.24974   1.18326 
 H                    -8.8744   -1.34072   1.23012 
 H                    -7.45858  -1.69213   2.22565 
 C                    -7.75271  -1.55154  -1.22564 
 H                    -7.42865  -0.5134   -1.35946 
 H                    -7.40822  -2.12604  -2.09205 
 H                    -8.84853  -1.57144  -1.22785 
 C                    -7.68815  -3.58312   0.25444 
 H                    -7.35105  -4.21731  -0.57215 
 H                    -7.31082  -4.01704   1.18702 
 H                    -8.78315  -3.62274   0.2769 
 C                    -2.9317   -3.7146   -2.13862 
 C                    -3.94399  -4.58351  -2.8949 
 H                    -4.49835  -5.24844  -2.2227 
 H                    -4.66377  -3.98238  -3.46251 
 H                    -3.40829  -5.21274  -3.61336 
 C                    -1.91937  -4.65824  -1.46252 
 H                    -1.45253  -5.30103  -2.21784 
 H                    -1.13135  -4.10178  -0.9514 
 H                    -2.42118  -5.30436  -0.73307 
 C                    -2.21207  -2.82516  -3.16461 
 H                    -2.93221  -2.16613  -3.66504 
 H                    -1.449    -2.20581  -2.69405 
 H                    -1.73567  -3.45062  -3.92949 
 C                     1.05691  -2.07606   4.41503 
 C                     0.21169  -2.0921    5.68949 
 C                    -0.65644  -0.84295   5.79983 
 C                    -1.57481  -0.73657   4.58476 
 C                    -0.75272  -0.67787   3.30431 
 C                     0.19591  -1.88453   3.16623 
 H                    -1.25516  -0.87121   6.71642 
 H                    -0.43239  -2.9823    5.6919 
 H                     0.87256  -2.18266   6.55828 
 H                     1.79287  -1.26267   4.47558 
 H                     1.61831  -3.01516   4.35091 
 H                    -2.23226  -1.61686   4.56498 
 H                    -2.21744   0.14969   4.65486 
 H                    -0.13474   0.22897   3.32295 
 H                    -0.44799  -2.76707   3.0364 
 H                    -0.01889   0.05007   5.86665 
 
 ITRead=  0  0  0  0  0  0  0  0  0  0  0  0  0  0  0  0  0  0  0  0
 ITRead=  0  0  0  0  0  0  0  0  0  0  0  0  0  0  0  0  0  0  0  0
 ITRead=  0  0  0  0  0  0  0  0  0  0  0  0  0  0  0  0  0  0  0  0
 ITRead=  0  0  0  0  0  0  0  0  0  0  0  0  0  0  0  0  0  0  0  0
 ITRead=  0  0  0  0  0  0  0  0  0  0  0  0  0  0  0  0  0  0  0  0
 ITRead=  0  0  0  0  0  0  0  0  0  0  0  0  0  0  0  0  0  0  0  0
 ITRead=  0  0  0  0  0  0  0  0  0  0  0  0  0  0  0  0  0  0  0
 MicOpt= -1 -1 -1 -1 -1 -1 -1 -1 -1 -1 -1 -1 -1 -1 -1 -1 -1 -1 -1 -1
 MicOpt= -1 -1 -1 -1 -1 -1 -1 -1 -1 -1 -1 -1 -1 -1 -1 -1 -1 -1 -1 -1
 MicOpt= -1 -1 -1 -1 -1 -1 -1 -1 -1 -1 -1 -1 -1 -1 -1 -1 -1 -1 -1 -1
 MicOpt= -1 -1 -1 -1 -1 -1 -1 -1 -1 -1 -1 -1 -1 -1 -1 -1 -1 -1 -1 -1
 MicOpt= -1 -1 -1 -1 -1 -1 -1 -1 -1 -1 -1 -1 -1 -1 -1 -1 -1 -1 -1 -1
 MicOpt= -1 -1 -1 -1 -1 -1 -1 -1 -1 -1 -1 -1 -1 -1 -1 -1 -1 -1 -1 -1
 MicOpt= -1 -1 -1 -1 -1 -1 -1 -1 -1 -1 -1 -1 -1 -1 -1 -1 -1 -1 -1
 NAtoms=    139 NQM=      139 NQMF=       0 NMMI=      0 NMMIF=      0
                NMic=       0 NMicF=      0.
                    Isotopes and Nuclear Properties:
 (Nuclear quadrupole moments (NQMom) in fm**2, nuclear magnetic moments (NMagM)
  in nuclear magnetons)

  Atom         1           2           3           4           5           6           7           8           9          10
 IAtWgt=          16          16          90          12          12          12          12          12           1          12
 AtmWgt=  15.9949146  15.9949146  89.9043000  12.0000000  12.0000000  12.0000000  12.0000000  12.0000000   1.0078250  12.0000000
 NucSpn=           0           0           0           0           0           0           0           0           1           0
 AtZEff=  -0.0000000  -0.0000000  -0.0000000  -0.0000000  -0.0000000  -0.0000000  -0.0000000  -0.0000000  -0.0000000  -0.0000000
 NQMom=    0.0000000   0.0000000   0.0000000   0.0000000   0.0000000   0.0000000   0.0000000   0.0000000   0.0000000   0.0000000
 NMagM=    0.0000000   0.0000000   0.0000000   0.0000000   0.0000000   0.0000000   0.0000000   0.0000000   2.7928460   0.0000000
 AtZNuc=   8.0000000   8.0000000  40.0000000   6.0000000   6.0000000   6.0000000   6.0000000   6.0000000   1.0000000   6.0000000

  Atom        11          12          13          14          15          16          17          18          19          20
 IAtWgt=           1          12          12          12          12           1          12          12           1          12
 AtmWgt=   1.0078250  12.0000000  12.0000000  12.0000000  12.0000000   1.0078250  12.0000000  12.0000000   1.0078250  12.0000000
 NucSpn=           1           0           0           0           0           1           0           0           1           0
 AtZEff=  -0.0000000  -0.0000000  -0.0000000  -0.0000000  -0.0000000  -0.0000000  -0.0000000  -0.0000000  -0.0000000  -0.0000000
 NQMom=    0.0000000   0.0000000   0.0000000   0.0000000   0.0000000   0.0000000   0.0000000   0.0000000   0.0000000   0.0000000
 NMagM=    2.7928460   0.0000000   0.0000000   0.0000000   0.0000000   2.7928460   0.0000000   0.0000000   2.7928460   0.0000000
 AtZNuc=   1.0000000   6.0000000   6.0000000   6.0000000   6.0000000   1.0000000   6.0000000   6.0000000   1.0000000   6.0000000

  Atom        21          22          23          24          25          26          27          28          29          30
 IAtWgt=           1          12           1          14          14          12          12          16          16          12
 AtmWgt=   1.0078250  12.0000000   1.0078250  14.0030740  14.0030740  12.0000000  12.0000000  15.9949146  15.9949146  12.0000000
 NucSpn=           1           0           1           2           2           0           0           0           0           0
 AtZEff=  -0.0000000  -0.0000000  -0.0000000  -0.0000000  -0.0000000  -0.0000000  -0.0000000  -0.0000000  -0.0000000  -0.0000000
 NQMom=    0.0000000   0.0000000   0.0000000   2.0440000   2.0440000   0.0000000   0.0000000   0.0000000   0.0000000   0.0000000
 NMagM=    2.7928460   0.0000000   2.7928460   0.4037610   0.4037610   0.0000000   0.0000000   0.0000000   0.0000000   0.0000000
 AtZNuc=   1.0000000   6.0000000   1.0000000   7.0000000   7.0000000   6.0000000   6.0000000   8.0000000   8.0000000   6.0000000

  Atom        31          32          33          34          35          36          37          38          39          40
 IAtWgt=           1           1           1          12          16          12           1           1          12          12
 AtmWgt=   1.0078250   1.0078250   1.0078250  12.0000000  15.9949146  12.0000000   1.0078250   1.0078250  12.0000000  12.0000000
 NucSpn=           1           1           1           0           0           0           1           1           0           0
 AtZEff=  -0.0000000  -0.0000000  -0.0000000  -0.0000000  -0.0000000  -0.0000000  -0.0000000  -0.0000000  -0.0000000  -0.0000000
 NQMom=    0.0000000   0.0000000   0.0000000   0.0000000   0.0000000   0.0000000   0.0000000   0.0000000   0.0000000   0.0000000
 NMagM=    2.7928460   2.7928460   2.7928460   0.0000000   0.0000000   0.0000000   2.7928460   2.7928460   0.0000000   0.0000000
 AtZNuc=   1.0000000   1.0000000   1.0000000   6.0000000   8.0000000   6.0000000   1.0000000   1.0000000   6.0000000   6.0000000

  Atom        41          42          43          44          45          46          47          48          49          50
 IAtWgt=          12          12          12          12           1           1           1          12          12          12
 AtmWgt=  12.0000000  12.0000000  12.0000000  12.0000000   1.0078250   1.0078250   1.0078250  12.0000000  12.0000000  12.0000000
 NucSpn=           0           0           0           0           1           1           1           0           0           0
 AtZEff=  -0.0000000  -0.0000000  -0.0000000  -0.0000000  -0.0000000  -0.0000000  -0.0000000  -0.0000000  -0.0000000  -0.0000000
 NQMom=    0.0000000   0.0000000   0.0000000   0.0000000   0.0000000   0.0000000   0.0000000   0.0000000   0.0000000   0.0000000
 NMagM=    0.0000000   0.0000000   0.0000000   0.0000000   2.7928460   2.7928460   2.7928460   0.0000000   0.0000000   0.0000000
 AtZNuc=   6.0000000   6.0000000   6.0000000   6.0000000   1.0000000   1.0000000   1.0000000   6.0000000   6.0000000   6.0000000

  Atom        51          52          53          54          55          56          57          58          59          60
 IAtWgt=          12          12          12           1           1           1           1           1          12          16
 AtmWgt=  12.0000000  12.0000000  12.0000000   1.0078250   1.0078250   1.0078250   1.0078250   1.0078250  12.0000000  15.9949146
 NucSpn=           0           0           0           1           1           1           1           1           0           0
 AtZEff=  -0.0000000  -0.0000000  -0.0000000  -0.0000000  -0.0000000  -0.0000000  -0.0000000  -0.0000000  -0.0000000  -0.0000000
 NQMom=    0.0000000   0.0000000   0.0000000   0.0000000   0.0000000   0.0000000   0.0000000   0.0000000   0.0000000   0.0000000
 NMagM=    0.0000000   0.0000000   0.0000000   2.7928460   2.7928460   2.7928460   2.7928460   2.7928460   0.0000000   0.0000000
 AtZNuc=   6.0000000   6.0000000   6.0000000   1.0000000   1.0000000   1.0000000   1.0000000   1.0000000   6.0000000   8.0000000

  Atom        61          62          63          64          65          66          67          68          69          70
 IAtWgt=          16           1          12           1           1           1          12           1           1           1
 AtmWgt=  15.9949146   1.0078250  12.0000000   1.0078250   1.0078250   1.0078250  12.0000000   1.0078250   1.0078250   1.0078250
 NucSpn=           0           1           0           1           1           1           0           1           1           1
 AtZEff=  -0.0000000  -0.0000000  -0.0000000  -0.0000000  -0.0000000  -0.0000000  -0.0000000  -0.0000000  -0.0000000  -0.0000000
 NQMom=    0.0000000   0.0000000   0.0000000   0.0000000   0.0000000   0.0000000   0.0000000   0.0000000   0.0000000   0.0000000
 NMagM=    0.0000000   2.7928460   0.0000000   2.7928460   2.7928460   2.7928460   0.0000000   2.7928460   2.7928460   2.7928460
 AtZNuc=   8.0000000   1.0000000   6.0000000   1.0000000   1.0000000   1.0000000   6.0000000   1.0000000   1.0000000   1.0000000

  Atom        71          72          73          74          75          76          77          78          79          80
 IAtWgt=          35          12          12           1           1           1          12           1           1           1
 AtmWgt=  34.9688527  12.0000000  12.0000000   1.0078250   1.0078250   1.0078250  12.0000000   1.0078250   1.0078250   1.0078250
 NucSpn=           3           0           0           1           1           1           0           1           1           1
 AtZEff=  -0.0000000  -0.0000000  -0.0000000  -0.0000000  -0.0000000  -0.0000000  -0.0000000  -0.0000000  -0.0000000  -0.0000000
 NQMom=   -8.1650000   0.0000000   0.0000000   0.0000000   0.0000000   0.0000000   0.0000000   0.0000000   0.0000000   0.0000000
 NMagM=    0.8218740   0.0000000   0.0000000   2.7928460   2.7928460   2.7928460   0.0000000   2.7928460   2.7928460   2.7928460
 AtZNuc=  17.0000000   6.0000000   6.0000000   1.0000000   1.0000000   1.0000000   6.0000000   1.0000000   1.0000000   1.0000000

  Atom        81          82          83          84          85          86          87          88          89          90
 IAtWgt=          12           1           1           1          12          12           1           1           1          12
 AtmWgt=  12.0000000   1.0078250   1.0078250   1.0078250  12.0000000  12.0000000   1.0078250   1.0078250   1.0078250  12.0000000
 NucSpn=           0           1           1           1           0           0           1           1           1           0
 AtZEff=  -0.0000000  -0.0000000  -0.0000000  -0.0000000  -0.0000000  -0.0000000  -0.0000000  -0.0000000  -0.0000000  -0.0000000
 NQMom=    0.0000000   0.0000000   0.0000000   0.0000000   0.0000000   0.0000000   0.0000000   0.0000000   0.0000000   0.0000000
 NMagM=    0.0000000   2.7928460   2.7928460   2.7928460   0.0000000   0.0000000   2.7928460   2.7928460   2.7928460   0.0000000
 AtZNuc=   6.0000000   1.0000000   1.0000000   1.0000000   6.0000000   6.0000000   1.0000000   1.0000000   1.0000000   6.0000000

  Atom        91          92          93          94          95          96          97          98          99         100
 IAtWgt=           1           1           1          12           1           1           1          12          12           1
 AtmWgt=   1.0078250   1.0078250   1.0078250  12.0000000   1.0078250   1.0078250   1.0078250  12.0000000  12.0000000   1.0078250
 NucSpn=           1           1           1           0           1           1           1           0           0           1
 AtZEff=  -0.0000000  -0.0000000  -0.0000000  -0.0000000  -0.0000000  -0.0000000  -0.0000000  -0.0000000  -0.0000000  -0.0000000
 NQMom=    0.0000000   0.0000000   0.0000000   0.0000000   0.0000000   0.0000000   0.0000000   0.0000000   0.0000000   0.0000000
 NMagM=    2.7928460   2.7928460   2.7928460   0.0000000   2.7928460   2.7928460   2.7928460   0.0000000   0.0000000   2.7928460
 AtZNuc=   1.0000000   1.0000000   1.0000000   6.0000000   1.0000000   1.0000000   1.0000000   6.0000000   6.0000000   1.0000000

  Atom       101         102         103         104         105         106         107         108         109         110
 IAtWgt=           1           1          12           1           1           1          12           1           1           1
 AtmWgt=   1.0078250   1.0078250  12.0000000   1.0078250   1.0078250   1.0078250  12.0000000   1.0078250   1.0078250   1.0078250
 NucSpn=           1           1           0           1           1           1           0           1           1           1
 AtZEff=  -0.0000000  -0.0000000  -0.0000000  -0.0000000  -0.0000000  -0.0000000  -0.0000000  -0.0000000  -0.0000000  -0.0000000
 NQMom=    0.0000000   0.0000000   0.0000000   0.0000000   0.0000000   0.0000000   0.0000000   0.0000000   0.0000000   0.0000000
 NMagM=    2.7928460   2.7928460   0.0000000   2.7928460   2.7928460   2.7928460   0.0000000   2.7928460   2.7928460   2.7928460
 AtZNuc=   1.0000000   1.0000000   6.0000000   1.0000000   1.0000000   1.0000000   6.0000000   1.0000000   1.0000000   1.0000000

  Atom       111         112         113         114         115         116         117         118         119         120
 IAtWgt=          12          12           1           1           1          12           1           1           1          12
 AtmWgt=  12.0000000  12.0000000   1.0078250   1.0078250   1.0078250  12.0000000   1.0078250   1.0078250   1.0078250  12.0000000
 NucSpn=           0           0           1           1           1           0           1           1           1           0
 AtZEff=  -0.0000000  -0.0000000  -0.0000000  -0.0000000  -0.0000000  -0.0000000  -0.0000000  -0.0000000  -0.0000000  -0.0000000
 NQMom=    0.0000000   0.0000000   0.0000000   0.0000000   0.0000000   0.0000000   0.0000000   0.0000000   0.0000000   0.0000000
 NMagM=    0.0000000   0.0000000   2.7928460   2.7928460   2.7928460   0.0000000   2.7928460   2.7928460   2.7928460   0.0000000
 AtZNuc=   6.0000000   6.0000000   1.0000000   1.0000000   1.0000000   6.0000000   1.0000000   1.0000000   1.0000000   6.0000000

  Atom       121         122         123         124         125         126         127         128         129         130
 IAtWgt=           1           1           1          12          12          12          12          12          12           1
 AtmWgt=   1.0078250   1.0078250   1.0078250  12.0000000  12.0000000  12.0000000  12.0000000  12.0000000  12.0000000   1.0078250
 NucSpn=           1           1           1           0           0           0           0           0           0           1
 AtZEff=  -0.0000000  -0.0000000  -0.0000000  -0.0000000  -0.0000000  -0.0000000  -0.0000000  -0.0000000  -0.0000000  -0.0000000
 NQMom=    0.0000000   0.0000000   0.0000000   0.0000000   0.0000000   0.0000000   0.0000000   0.0000000   0.0000000   0.0000000
 NMagM=    2.7928460   2.7928460   2.7928460   0.0000000   0.0000000   0.0000000   0.0000000   0.0000000   0.0000000   2.7928460
 AtZNuc=   1.0000000   1.0000000   1.0000000   6.0000000   6.0000000   6.0000000   6.0000000   6.0000000   6.0000000   1.0000000

  Atom       131         132         133         134         135         136         137         138         139
 IAtWgt=           1           1           1           1           1           1           1           1           1
 AtmWgt=   1.0078250   1.0078250   1.0078250   1.0078250   1.0078250   1.0078250   1.0078250   1.0078250   1.0078250
 NucSpn=           1           1           1           1           1           1           1           1           1
 AtZEff=  -0.0000000  -0.0000000  -0.0000000  -0.0000000  -0.0000000  -0.0000000  -0.0000000  -0.0000000  -0.0000000
 NQMom=    0.0000000   0.0000000   0.0000000   0.0000000   0.0000000   0.0000000   0.0000000   0.0000000   0.0000000
 NMagM=    2.7928460   2.7928460   2.7928460   2.7928460   2.7928460   2.7928460   2.7928460   2.7928460   2.7928460
 AtZNuc=   1.0000000   1.0000000   1.0000000   1.0000000   1.0000000   1.0000000   1.0000000   1.0000000   1.0000000
 Leave Link  101 at Thu Dec 11 21:24:25 2025, MaxMem=   104857600 cpu:               0.1 elap:               0.1
 (Enter /usr/local/bin/g16/l202.exe)
 Stoichiometry    C56H72ClN2O7Zr(1+)
 Framework group  C1[X(C56H72ClN2O7Zr)]
 Deg. of freedom   411
 Full point group                 C1      NOp   1
 Largest Abelian subgroup         C1      NOp   1
 Largest concise Abelian subgroup C1      NOp   1
                         Standard orientation:                         
 ---------------------------------------------------------------------
 Center     Atomic      Atomic             Coordinates (Angstroms)
 Number     Number       Type             X           Y           Z
 ---------------------------------------------------------------------
      1          8           0        1.421374   -1.264051   -0.795660
      2          8           0       -1.536561   -1.953270   -0.285562
      3         40           0       -0.208951   -0.514554    0.169124
      4          6           0        3.093275   -1.881417    0.758018
      5          6           0        2.694341   -1.519631   -0.548947
      6          6           0        4.454255   -2.098408    1.060070
      7          6           0        3.677501   -1.425521   -1.570173
      8          6           0        5.435712   -1.948243    0.100355
      9          1           0        4.713355   -2.368064    2.079570
     10          6           0        5.002578   -1.629827   -1.202060
     11          1           0        5.760935   -1.536683   -1.970100
     12          6           0       -3.513669   -1.380923    0.888915
     13          6           0       -4.920374   -1.419006    0.992853
     14          6           0       -2.856043   -2.045418   -0.181017
     15          6           0       -5.686126   -2.093207    0.063994
     16          1           0       -5.383947   -0.903748    1.828649
     17          6           0       -3.611113   -2.845608   -1.076267
     18          6           0       -4.993246   -2.810422   -0.935031
     19          1           0       -5.585958   -3.387804   -1.634379
     20          6           0        2.168022   -2.024846    1.845679
     21          1           0        2.624171   -2.450365    2.740125
     22          6           0       -2.764320   -0.902260    2.014831
     23          1           0       -3.335925   -0.809439    2.940326
     24          7           0       -1.486505   -0.686677    2.047393
     25          7           0        0.918423   -1.692616    1.892389
     26          6           0       -0.840124    2.243846   -1.775879
     27          6           0       -1.583838    2.184762   -0.548929
     28          8           0       -1.717551    1.168848    0.192734
     29          8           0       -0.627452    1.239909   -3.866115
     30          6           0       -0.583011    0.066415   -4.695487
     31          1           0       -1.566156   -0.407906   -4.710531
     32          1           0       -0.315613    0.427137   -5.687669
     33          1           0        0.157213   -0.638799   -4.319435
     34          6           0       -0.708835    1.049230   -2.558147
     35          8           0       -0.698799   -0.094318   -2.057709
     36          6           0       -0.839687    3.653448   -2.304267
     37          1           0       -1.314943    3.719029   -3.291181
     38          1           0        0.176113    4.054066   -2.417213
     39          6           0       -1.895120    5.758541   -1.160586
     40          6           0       -2.637599    6.200733   -0.062103
     41          6           0       -3.092696    5.327779    0.938127
     42          6           0       -2.800459    3.974721    0.850102
     43          6           0       -2.065353    3.524003   -0.247723
     44          6           0       -1.618415    4.403024   -1.249149
     45          1           0       -1.558420    6.465635   -1.911653
     46          1           0       -3.664880    5.724599    1.769575
     47          1           0       -3.131699    3.277202    1.613053
     48          6           0        4.950353    2.104392   -0.603838
     49          6           0        3.972020    1.639949    0.270100
     50          6           0        3.069562    2.527714    0.870343
     51          6           0        3.172946    3.890160    0.583382
     52          6           0        4.158046    4.356615   -0.287652
     53          6           0        5.047052    3.466872   -0.886314
     54          1           0        5.635196    1.395612   -1.059783
     55          1           0        3.903069    0.577897    0.477457
     56          1           0        2.484978    4.599316    1.031970
     57          1           0        4.226267    5.420030   -0.499303
     58          1           0        5.811387    3.832588   -1.565967
     59          6           0        1.988461    1.958623    1.784379
     60          8           0        1.385146    0.868210    1.092675
     61          8           0        0.715111    1.581327   -0.375381
     62          1           0        1.548442    1.529081   -0.894269
     63          6           0        0.920679    2.962427    2.199526
     64          1           0        1.341265    3.746593    2.836078
     65          1           0        0.456043    3.423014    1.325620
     66          1           0        0.140428    2.445586    2.766516
     67          6           0        2.642810    1.321282    3.020117
     68          1           0        3.331674    0.525534    2.726844
     69          1           0        3.206716    2.089596    3.558083
     70          1           0        1.884424    0.910986    3.692488
     71         17           0       -3.007582    7.887587    0.073324
     72          6           0        3.296882   -1.096186   -3.014379
     73          6           0        2.652070    0.298670   -3.073929
     74          1           0        1.718292    0.297810   -2.512408
     75          1           0        3.325421    1.058961   -2.662433
     76          1           0        2.426917    0.572994   -4.110898
     77          6           0        2.312502   -2.159824   -3.532808
     78          1           0        1.392289   -2.172186   -2.944277
     79          1           0        2.062038   -1.959018   -4.581672
     80          1           0        2.764431   -3.156686   -3.486034
     81          6           0        4.514742   -1.084076   -3.944953
     82          1           0        4.183730   -0.865785   -4.965760
     83          1           0        5.240641   -0.311713   -3.665102
     84          1           0        5.026048   -2.052854   -3.965641
     85          6           0        6.926778   -2.108729    0.385108
     86          6           0        7.495218   -3.243226   -0.484421
     87          1           0        7.368244   -3.040901   -1.553227
     88          1           0        8.567743   -3.364922   -0.295068
     89          1           0        6.997994   -4.193306   -0.260626
     90          6           0        7.644351   -0.789848    0.047744
     91          1           0        8.716708   -0.875842    0.256414
     92          1           0        7.535119   -0.527581   -1.010410
     93          1           0        7.244350    0.037089    0.645290
     94          6           0        7.194128   -2.441475    1.855932
     95          1           0        6.830274   -1.651350    2.523317
     96          1           0        6.727311   -3.388717    2.149639
     97          1           0        8.271757   -2.541571    2.021264
     98          6           0       -7.212289   -2.128686    0.094432
     99          6           0       -7.780343   -1.303005    1.252576
    100          1           0       -7.484318   -0.249738    1.183256
    101          1           0       -8.874404   -1.340719    1.230115
    102          1           0       -7.458579   -1.692127    2.225654
    103          6           0       -7.752709   -1.551538   -1.225638
    104          1           0       -7.428653   -0.513403   -1.359457
    105          1           0       -7.408218   -2.126037   -2.092050
    106          1           0       -8.848528   -1.571440   -1.227848
    107          6           0       -7.688146   -3.583122    0.254438
    108          1           0       -7.351050   -4.217310   -0.572153
    109          1           0       -7.310818   -4.017041    1.187023
    110          1           0       -8.783152   -3.622738    0.276901
    111          6           0       -2.931701   -3.714602   -2.138616
    112          6           0       -3.943986   -4.583509   -2.894902
    113          1           0       -4.498352   -5.248440   -2.222700
    114          1           0       -4.663771   -3.982375   -3.462511
    115          1           0       -3.408289   -5.212743   -3.613359
    116          6           0       -1.919367   -4.658241   -1.462522
    117          1           0       -1.452531   -5.301034   -2.217835
    118          1           0       -1.131346   -4.101780   -0.951401
    119          1           0       -2.421176   -5.304355   -0.733072
    120          6           0       -2.212071   -2.825162   -3.164614
    121          1           0       -2.932212   -2.166134   -3.665043
    122          1           0       -1.448997   -2.205811   -2.694045
    123          1           0       -1.735671   -3.450619   -3.929491
    124          6           0        1.056911   -2.076056    4.415034
    125          6           0        0.211693   -2.092103    5.689493
    126          6           0       -0.656442   -0.842952    5.799834
    127          6           0       -1.574808   -0.736571    4.584765
    128          6           0       -0.752720   -0.677869    3.304310
    129          6           0        0.195908   -1.884531    3.166234
    130          1           0       -1.255155   -0.871206    6.716422
    131          1           0       -0.432388   -2.982304    5.691903
    132          1           0        0.872559   -2.182655    6.558278
    133          1           0        1.792874   -1.262668    4.475582
    134          1           0        1.618313   -3.015162    4.350914
    135          1           0       -2.232264   -1.616859    4.564981
    136          1           0       -2.217437    0.149687    4.654856
    137          1           0       -0.134742    0.228970    3.322949
    138          1           0       -0.447991   -2.767074    3.036397
    139          1           0       -0.018889    0.050065    5.866646
 ---------------------------------------------------------------------
 Rotational constants (GHZ):           0.0398062           0.0286456           0.0238018
 Leave Link  202 at Thu Dec 11 21:24:25 2025, MaxMem=   104857600 cpu:               0.0 elap:               0.0
 (Enter /usr/local/bin/g16/l301.exe)
 Standard basis: STO-3G (5D, 7F)
 Ernie: Thresh=  0.10000D-02 Tol=  0.10000D-05 Strict=F.
 There are   435 symmetry adapted cartesian basis functions of A   symmetry.
 There are   433 symmetry adapted basis functions of A   symmetry.
   433 basis functions,  1305 primitive gaussians,   435 cartesian basis functions
   267 alpha electrons      267 beta electrons
       nuclear repulsion energy     14047.6137920472 Hartrees.
 IExCor=    0 DFT=F Ex=HF Corr=None ExCW=0 ScaHFX=  1.000000
 ScaDFX=  1.000000  1.000000  1.000000  1.000000 ScalE2=  1.000000  1.000000
 IRadAn=      5 IRanWt=     -1 IRanGd=            0 ICorTp=0 IEmpDi=  4
 NAtoms=  139 NActive=  139 NUniq=  139 SFac= 1.00D+00 NAtFMM=   60 NAOKFM=T Big=T
 Integral buffers will be    131072 words long.
 Raffenetti 1 integral format.
 Two-electron integral symmetry is turned on.
 Leave Link  301 at Thu Dec 11 21:24:25 2025, MaxMem=   104857600 cpu:               0.0 elap:               0.0
 (Enter /usr/local/bin/g16/l402.exe)
 External calculation of energy and first derivatives.
 Running external command "gxtbint R"
         input file       "/usr/local/bin/g16/scratch/Gau-2211.EIn"
         output file      "/usr/local/bin/g16/scratch/Gau-2211.EOu"
         message file     "/usr/local/bin/g16/scratch/Gau-2211.EMs"
         fchk file        "/usr/local/bin/g16/scratch/Gau-2211.EFC"
         mat. el file     "/usr/local/bin/g16/scratch/Gau-2211.EUF"
Using prefix: Gau-2211
Generating Gau-2211_mol.tmp
Generating Gau-2211_mol.xyz via genxyz
Running: gxtb -c mol.xyz -grad > xtbout
g-XTB running finished!
g-XTB normal termination!
Extracting data from g-XTB outputs via extderi
 Recovered energy= -3320.61175557     dipole=      0.000000000000      0.000000000000      0.000000000000
 Energy=    -3320.61176     NIter=   0.
 Dipole moment=       0.000000       0.000000       0.000000
 Leave Link  402 at Thu Dec 11 21:31:19 2025, MaxMem=   104857600 cpu:               0.0 elap:             414.6
 (Enter /usr/local/bin/g16/l601.exe)
 Hyperfine terms turned off by default for NAtoms > 100.
 Leave Link  601 at Thu Dec 11 21:31:19 2025, MaxMem=   104857600 cpu:               0.0 elap:               0.0
 (Enter /usr/local/bin/g16/l716.exe)
 Dipole        = 0.00000000D+00 0.00000000D+00 0.00000000D+00
 ***** Axes restored to original set *****
 -------------------------------------------------------------------
 Center     Atomic                   Forces (Hartrees/Bohr)
 Number     Number              X              Y              Z
 -------------------------------------------------------------------
      1        8          -2.686007551    2.388710274    1.503579451
      2        8           2.903679498    3.691145425    0.539633933
      3       40           0.394860196    0.972366211   -0.319598080
      4        6          -5.845442552    3.555362934   -1.432446458
      5        6          -5.091566549    2.871686477    1.037359449
      6        6          -8.417322015    3.965416496   -2.003242014
      7        6          -6.949469688    2.693844352    2.967196902
      8        6         -10.272006950    3.681645772   -0.189643504
      9        1          -8.906950055    4.474992484   -3.929817800
     10        6          -9.453502314    3.079926738    2.271564149
     11        1         -10.886589350    2.903910087    3.722949403
     12        6           6.639872141    2.609566346   -1.679805939
     13        6           9.298159331    2.681532786   -1.876220293
     14        6           5.397139107    3.865279908    0.342072515
     15        6          10.745220892    3.955588030   -0.120931173
     16        1          10.174185341    1.707836281   -3.455645830
     17        6           6.824014613    5.377419857    2.033849830
     18        6           9.435867454    5.310927954    1.766952471
     19        1          10.555930806    6.402021804    3.088528658
     20        6          -4.096967784    3.826404462   -3.487827866
     21        1          -4.958964467    4.630518834   -5.178085841
     22        6           5.223807758    1.705024369   -3.807478820
     23        1           6.303984660    1.529618100   -5.556410901
     24        7           2.809087367    1.297631541   -3.869012082
     25        7          -1.735567906    3.198580751   -3.576096974
     26        6           1.587604304   -4.240254336    3.355924905
     27        6           2.993020080   -4.128601757    1.037325434
     28        8           3.245701030   -2.208802529   -0.364214514
     29        8           1.185712469   -2.343088358    7.305898484
     30        6           1.101731150   -0.125506087    8.873184421
     31        1           2.959605943    0.770830700    8.901613461
     32        1           0.596422164   -0.807171874   10.748136669
     33        1          -0.297089482    1.207155234    8.162549132
     34        6           1.339504051   -1.982757269    4.834197182
     35        8           1.320538759    0.178235263    3.888506419
     36        6           1.586778494   -6.904016063    4.354433513
     37        1           2.484882174   -7.027946192    6.219430684
     38        1          -0.332805306   -7.661074364    4.567870520
     39        6           3.581257809  -10.882065304    2.193189647
     40        6           4.984339773  -11.717687079    0.117357623
     41        6           5.844348464  -10.068043098   -1.772803141
     42        6           5.292100570   -7.511134045   -1.606459998
     43        6           3.902951556   -6.659400465    0.468128586
     44        6           3.058361141   -8.320509414    2.360549462
     45        1           2.944987022  -12.218279309    3.612500580
     46        1           6.925619518  -10.817924220   -3.344012149
     47        1           5.918053452   -6.193014167   -3.048228436
     48        6          -9.354811367   -3.976724468    1.141088406
     49        6          -7.506029937   -3.099054397   -0.510415066
     50        6          -5.800631476   -4.776687112   -1.644709945
     51        6          -5.995998922   -7.351336914   -1.102432246
     52        6          -7.857568129   -8.232809114    0.543583461
     53        6          -9.537545994   -6.551438521    1.674890683
     54        1         -10.648977077   -2.637324385    2.002699585
     55        1          -7.375731431   -1.092066985   -0.902263006
     56        1          -4.695927818   -8.691447535   -1.950140710
     57        1          -7.986487135  -10.242372223    0.943545885
     58        1         -10.981929813   -7.242541601    2.959248714
     59        6          -3.757646671   -3.701260981   -3.371987655
     60        8          -2.617546553   -1.640679046   -2.064856534
     61        8          -1.351363908   -2.988274872    0.709367244
     62        1          -2.926131271   -2.889544241    1.689923454
     63        6          -1.739831129   -5.598175625   -4.156501787
     64        1          -2.534623481   -7.080034603   -5.359410732
     65        1          -0.861796340   -6.468558913   -2.505058787
     66        1          -0.265370429   -4.621487684   -5.227957603
     67        6          -4.994187072   -2.496861042   -5.707194039
     68        1          -6.295951371   -0.993115256   -5.152988388
     69        1          -6.059814973   -3.948764081   -6.723802444
     70        1          -3.561045234   -1.721513971   -6.977791084
     71       17           5.683506315  -14.905379154   -0.138562317
     72        6          -6.230204019    2.071491398    5.696350712
     73        6          -5.011685936   -0.564404428    5.808883903
     74        1          -3.247101253   -0.562779264    4.747762999
     75        1          -6.284134913   -2.001146194    5.031269161
     76        1          -4.586208430   -1.082801658    7.768471315
     77        6          -4.369995415    4.081475915    6.676039538
     78        1          -2.631044867    4.104836710    5.563877131
     79        1          -3.896687051    3.702007571    8.658105242
     80        1          -5.224017454    5.965272081    6.587649489
     81        6          -8.531625880    2.048606814    7.454880713
     82        1          -7.906103855    1.636096609    9.383926371
     83        1          -9.903376185    0.589052274    6.926038967
     84        1          -9.497854186    3.879331912    7.493975367
     85        6         -13.089713327    3.984920359   -0.727748688
     86        6         -14.163909246    6.128808980    0.915422981
     87        1         -13.923963161    5.746470142    2.935173603
     88        1         -16.190687760    6.358781091    0.557597670
     89        1         -13.224292063    7.924199978    0.492511723
     90        6         -14.445729773    1.492596476   -0.090223123
     91        1         -16.472190812    1.655101584   -0.484552274
     92        1         -14.239311208    0.996983674    1.909398137
     93        1         -13.689837432   -0.070087978   -1.219421411
     94        6         -13.594931607    4.613719169   -3.507203228
     95        1         -12.907347197    3.120599313   -4.768378099
     96        1         -12.712775326    6.403747124   -4.062229020
     97        1         -15.631355283    4.802873195   -3.819635428
     98        6          13.629250986    4.022633623   -0.178450656
     99        6          14.702717471    2.462322666   -2.367025631
    100        1          14.143311295    0.471936498   -2.236029816
    101        1          16.770193127    2.533591797   -2.324580493
    102        1          14.094671634    3.197656675   -4.205876551
    103        6          14.650496780    2.931981969    2.316120111
    104        1          14.038119690    0.970191137    2.569001372
    105        1          13.999503137    4.017627739    3.953401504
    106        1          16.721294574    2.969591298    2.320296406
    107        6          14.528490392    6.771119332   -0.480818175
    108        1          13.891471273    7.969560964    1.081212434
    109        1          13.815443812    7.591107403   -2.243148415
    110        1          16.597751839    6.845982722   -0.523267093
    111        6           5.540112006    7.019580523    4.041398491
    112        6           7.453053418    8.661576782    5.470571904
    113        1           8.500653332    9.918114265    4.200294222
    114        1           8.813249938    7.525598157    6.543197461
    115        1           6.440732802    9.850656712    6.828258868
    116        6           3.627077998    8.802799795    2.763765995
    117        1           2.744885812   10.017502521    4.191100705
    118        1           2.137934126    7.751240905    1.797887288
    119        1           4.575359576   10.023778302    1.385305272
    120        6           4.180208394    5.338782517    5.980253717
    121        1           5.541077656    4.093400087    6.925927473
    122        1           2.738207520    4.168378751    5.091007183
    123        1           3.279942867    6.520724951    7.425661767
    124        6          -1.997272298    3.923177337   -8.343205138
    125        6          -0.400041761    3.953501772  -10.751583607
    126        6           1.240495630    1.592948492  -10.960097878
    127        6           2.975955853    1.391917537   -8.663950243
    128        6           1.422434682    1.280986834   -6.244240976
    129        6          -0.370212434    3.561247541   -5.983315151
    130        1           2.371899228    1.646340814  -12.692198168
    131        1           0.817094932    5.635737860  -10.756137847
    132        1          -1.648897507    4.124620253  -12.393349320
    133        1          -3.388040807    2.386096783   -8.457624275
    134        1          -3.058168325    5.697830481   -8.222035898
    135        1           4.218367634    3.055420769   -8.626563901
    136        1           4.190348664   -0.282867361   -8.796403037
    137        1           0.254625510   -0.432690517   -6.279463581
    138        1           0.846580329    5.229012106   -5.737958780
    139        1           0.035695069   -0.094609064  -11.086354260
 -------------------------------------------------------------------
 Cartesian Forces:  Max    16.770193127 RMS     6.282882692
 Leave Link  716 at Thu Dec 11 21:31:19 2025, MaxMem=   104857600 cpu:               0.0 elap:               0.0
 (Enter /usr/local/bin/g16/l9999.exe)
 1\1\GINC-LAPTOP-F8G6GB8F\Force\RExternal='gxtbint'\ZDO\C56H72Cl1N2O7Zr
 1(1+)\TANGKUN\11-Dec-2025\0\\#p force external='gxtbint'\\Salen_R\\1,1
 \O,1.421374,-1.264051,-0.79566\O,-1.536561,-1.95327,-0.285562\Zr,-0.20
 8951,-0.514554,0.169124\C,3.093275,-1.881417,0.758018\C,2.694341,-1.51
 9631,-0.548947\C,4.454255,-2.098408,1.06007\C,3.677501,-1.425521,-1.57
 0173\C,5.435712,-1.948243,0.100355\H,4.713355,-2.368064,2.07957\C,5.00
 2578,-1.629827,-1.20206\H,5.760935,-1.536683,-1.9701\C,-3.513669,-1.38
 0923,0.888915\C,-4.920374,-1.419006,0.992853\C,-2.856043,-2.045418,-0.
 181017\C,-5.686126,-2.093207,0.063994\H,-5.383947,-0.903748,1.828649\C
 ,-3.611113,-2.845608,-1.076267\C,-4.993246,-2.810422,-0.935031\H,-5.58
 5958,-3.387804,-1.634379\C,2.168022,-2.024846,1.845679\H,2.624171,-2.4
 50365,2.740125\C,-2.76432,-0.90226,2.014831\H,-3.335925,-0.809439,2.94
 0326\N,-1.486505,-0.686677,2.047393\N,0.918423,-1.692616,1.892389\C,-0
 .840124,2.243846,-1.775879\C,-1.583838,2.184762,-0.548929\O,-1.717551,
 1.168848,0.192734\O,-0.627452,1.239909,-3.866115\C,-0.583011,0.066415,
 -4.695487\H,-1.566156,-0.407906,-4.710531\H,-0.315613,0.427137,-5.6876
 69\H,0.157213,-0.638799,-4.319435\C,-0.708835,1.04923,-2.558147\O,-0.6
 98799,-0.094318,-2.057709\C,-0.839687,3.653448,-2.304267\H,-1.314943,3
 .719029,-3.291181\H,0.176113,4.054066,-2.417213\C,-1.89512,5.758541,-1
 .160586\C,-2.637599,6.200733,-0.062103\C,-3.092696,5.327779,0.938127\C
 ,-2.800459,3.974721,0.850102\C,-2.065353,3.524003,-0.247723\C,-1.61841
 5,4.403024,-1.249149\H,-1.55842,6.465635,-1.911653\H,-3.66488,5.724599
 ,1.769575\H,-3.131699,3.277202,1.613053\C,4.950353,2.104392,-0.603838\
 C,3.97202,1.639949,0.2701\C,3.069562,2.527714,0.870343\C,3.172946,3.89
 016,0.583382\C,4.158046,4.356615,-0.287652\C,5.047052,3.466872,-0.8863
 14\H,5.635196,1.395612,-1.059783\H,3.903069,0.577897,0.477457\H,2.4849
 78,4.599316,1.03197\H,4.226267,5.42003,-0.499303\H,5.811387,3.832588,-
 1.565967\C,1.988461,1.958623,1.784379\O,1.385146,0.86821,1.092675\O,0.
 715111,1.581327,-0.375381\H,1.548442,1.529081,-0.894269\C,0.920679,2.9
 62427,2.199526\H,1.341265,3.746593,2.836078\H,0.456043,3.423014,1.3256
 2\H,0.140428,2.445586,2.766516\C,2.64281,1.321282,3.020117\H,3.331674,
 0.525534,2.726844\H,3.206716,2.089596,3.558083\H,1.884424,0.910986,3.6
 92488\Cl,-3.007582,7.887587,0.073324\C,3.296882,-1.096186,-3.014379\C,
 2.65207,0.29867,-3.073929\H,1.718292,0.29781,-2.512408\H,3.325421,1.05
 8961,-2.662433\H,2.426917,0.572994,-4.110898\C,2.312502,-2.159824,-3.5
 32808\H,1.392289,-2.172186,-2.944277\H,2.062038,-1.959018,-4.581672\H,
 2.764431,-3.156686,-3.486034\C,4.514742,-1.084076,-3.944953\H,4.18373,
 -0.865785,-4.96576\H,5.240641,-0.311713,-3.665102\H,5.026048,-2.052854
 ,-3.965641\C,6.926778,-2.108729,0.385108\C,7.495218,-3.243226,-0.48442
 1\H,7.368244,-3.040901,-1.553227\H,8.567743,-3.364922,-0.295068\H,6.99
 7994,-4.193306,-0.260626\C,7.644351,-0.789848,0.047744\H,8.716708,-0.8
 75842,0.256414\H,7.535119,-0.527581,-1.01041\H,7.24435,0.037089,0.6452
 9\C,7.194128,-2.441475,1.855932\H,6.830274,-1.65135,2.523317\H,6.72731
 1,-3.388717,2.149639\H,8.271757,-2.541571,2.021264\C,-7.212289,-2.1286
 86,0.094432\C,-7.780343,-1.303005,1.252576\H,-7.484318,-0.249738,1.183
 256\H,-8.874404,-1.340719,1.230115\H,-7.458579,-1.692127,2.225654\C,-7
 .752709,-1.551538,-1.225638\H,-7.428653,-0.513403,-1.359457\H,-7.40821
 8,-2.126037,-2.09205\H,-8.848528,-1.57144,-1.227848\C,-7.688146,-3.583
 122,0.254438\H,-7.35105,-4.21731,-0.572153\H,-7.310818,-4.017041,1.187
 023\H,-8.783152,-3.622738,0.276901\C,-2.931701,-3.714602,-2.138616\C,-
 3.943986,-4.583509,-2.894902\H,-4.498352,-5.24844,-2.2227\H,-4.663771,
 -3.982375,-3.462511\H,-3.408289,-5.212743,-3.613359\C,-1.919367,-4.658
 241,-1.462522\H,-1.452531,-5.301034,-2.217835\H,-1.131346,-4.10178,-0.
 951401\H,-2.421176,-5.304355,-0.733072\C,-2.212071,-2.825162,-3.164614
 \H,-2.932212,-2.166134,-3.665043\H,-1.448997,-2.205811,-2.694045\H,-1.
 735671,-3.450619,-3.929491\C,1.056911,-2.076056,4.415034\C,0.211693,-2
 .092103,5.689493\C,-0.656442,-0.842952,5.799834\C,-1.574808,-0.736571,
 4.584765\C,-0.75272,-0.677869,3.30431\C,0.195908,-1.884531,3.166234\H,
 -1.255155,-0.871206,6.716422\H,-0.432388,-2.982304,5.691903\H,0.872559
 ,-2.182655,6.558278\H,1.792874,-1.262668,4.475582\H,1.618313,-3.015162
 ,4.350914\H,-2.232264,-1.616859,4.564981\H,-2.217437,0.149687,4.654856
 \H,-0.134742,0.22897,3.322949\H,-0.447991,-2.767074,3.036397\H,-0.0188
 89,0.050065,5.866646\\Version=ES64L-G16RevA.03\HF=-3320.6117556\RMSD=0
 .000e+00\RMSF=6.283e+00\Dipole=0.,0.,0.\PG=C01 [X(C56H72Cl1N2O7Zr1)]\\
 @


 "MATHEMATICS IS THE ART OF GIVING THE SAME NAME
 TO DIFFERENT THINGS."
                    - H. POINCARE
 Job cpu time:       0 days  0 hours  0 minutes  0.3 seconds.
 Elapsed time:       0 days  0 hours  6 minutes 54.9 seconds.
 File lengths (MBytes):  RWF=      6 Int=      0 D2E=      0 Chk=      1 Scr=      1
 Normal termination of Gaussian 16 at Thu Dec 11 21:31:19 2025.
